32
Lattice="5.612964153289795 0.0 1.865676999092102 1.4929519891738892 6.0122551918029785 0.45862001180648804 0.0 0.0 7.9108147621154785" Properties=species:S:1:pos:R:3:forces:R:3 energy=-224.4490203857422 stress="-0.16444018483161926 0.0035195464733988047 0.07445881515741348 0.0035195464733988047 -0.19631120562553406 0.03302347660064697 0.07445881515741348 0.03302347660064697 -0.09068172425031662" pbc="T T T"
Li       5.09796238       0.75153190       4.65635061      -0.23669350       0.04852669      -0.23481005
Li       5.84443855       3.75765944       8.84106827      -0.03460660       0.01429170       0.32295930
Li       2.00795341       5.26072311       5.57876158       0.14216080      -0.09586991      -0.19486763
Li       1.26147747       2.25459552       1.39404404      -0.40283117       0.49523005       0.07257040
Li       3.03795648       3.75765944       7.90822935      -0.14216080       0.09586991       0.19486763
Li       2.29148054       0.75153190       3.72351193       0.40283117      -0.49523005      -0.07257040
Li       4.06795931       2.25459552       2.32688260       0.23669350      -0.04852669       0.23481005
Li       4.81443548       5.26072311       6.51160002       0.03460660      -0.01429170      -0.32295930
Li       5.32943678       4.50919104       3.72092652       0.00000000       0.00000000       0.00000000
Mn       0.00000000       0.00000000       0.00000000      -1.91603565      -1.16895270       1.28836811
Mn       2.52295494       4.50919104       2.78808808       0.00000000       0.00000000      -0.00000000
Mn       0.74647599       3.00612760       4.18471766      -0.61657721       0.62930268      -1.23789775
Mn       1.77647901       1.50306380       6.51418543       0.00000000       0.00000000      -0.00000000
Mn       3.55295801       3.00612760       5.11755610       1.91603565       1.16895270      -1.28836811
Mn       2.80648208       0.00000000       0.93283850       0.61657721      -0.62930268       1.23789775
Mn       4.58296108       1.50306380       7.44702387       0.00000000       0.00000000      -0.00000000
O        4.02239847       0.28032139       2.78113866      -0.86080015       1.52405512      -0.67265636
O        4.76887465       3.28644896       6.96585608      -0.68707418       1.57067251       0.71026826
O        6.54535341       4.78951263       5.56922674      -0.22336110       1.01799691       0.62402719
O        5.79887724       1.78338516       9.29532433      -0.70235306       1.79070079       0.29838863
O        1.96239245       3.28644896       6.03301764      -1.46572435       1.48372316       0.34910363
O        1.21591651       0.28032139       1.84830022      -0.61749363       1.09633148       0.66308796
O        2.99239540       1.78338516       8.36248589      -0.87276018       1.41952360       0.53271174
O        3.73887157       4.78951263       4.63638830      -1.99015343       0.93875593      -0.52531844
O        0.56056255       1.22274232       4.66588545       0.87276018      -1.41952360      -0.53271174
O        1.30703855       4.22886992       0.93978775       1.99015343      -0.93875593       0.52531844
O        3.08351755       5.73193359       7.45397329       1.46572435      -1.48372316      -0.34910363
O        2.33704162       2.72580600       3.26925564       0.61749363      -1.09633148      -0.66308796
O        4.11352062       4.22886992       1.87262630       0.22336110      -1.01799691      -0.62402719
O        3.36704445       1.22274232       5.59872389       0.70235306      -1.79070079      -0.29838863
O        5.14352369       2.72580600       4.20209408       0.86080015      -1.52405512       0.67265636
O        5.88999939       5.73193359       8.38681221       0.68707418      -1.57067251      -0.71026826
32
Lattice="5.06936502456665 -0.06873083859682083 0.3785698115825653 -1.4987841844558716 4.8614606857299805 0.2407568246126175 -0.24188849329948425 -0.2790108621120453 12.081924438476562" Properties=species:S:1:pos:R:3:forces:R:3 energy=-228.30105590820312 stress="0.0019338125130161643 -0.0001579334057169035 -0.001238758908584714 -0.0001579334057169035 -0.00043770059710368514 -0.0005020107491873205 -0.001238758908584714 -0.0005020107491873205 0.004937918856739998" pbc="T T T"
Li      -0.77962816       2.39585400       1.63061905      -0.00000000      -0.00000000      -0.00000000
Li       1.72062385       2.34890866       3.28630662      -0.02632799       0.00979594       0.03659924
Li      -0.84187293       2.32656240       4.60978842      -0.01908012      -0.02544889      -0.05697989
Li       1.66657507       2.26275635       6.34902143       0.01491682       0.01407791       0.05810959
Li      -0.90057242       2.25634837       7.67158127      -0.00000000      -0.00000000      -0.00000000
Li       1.60164535       2.18120980       9.37271118      -0.01491682      -0.01407791      -0.05810959
Li      -0.95927185       2.18613458      10.73337460       0.01908012       0.02544889       0.05697989
Li       1.78948498       2.37406826       0.35350132       0.02632799      -0.00979594      -0.03659924
Li       2.50444651      -0.06924178       1.69952548      -0.00000000      -0.00000000      -0.00000000
Mn       0.01040618       0.03945041       0.07313993      -0.05861471       0.11496360      -0.15201609
Mn       3.49970269       4.68352652       3.56666803       0.05861471      -0.11496360       0.15201609
Mn       0.94737786       4.69639063       4.88190269      -0.13166511      -0.00984764       0.18334143
Mn       3.44826841       4.64554262       6.64001369      -0.01736862      -0.06396703       0.02581402
Mn       2.38350224      -0.20874719       7.74048805      -0.00000000      -0.00000000      -0.00000000
Mn      -0.18004814      -0.20157628       9.08171844       0.01736862       0.06396703      -0.02581402
Mn       2.32084250      -0.25242463      10.83982944       0.13166511       0.00984764      -0.18334143
O        3.27554035       0.78182799      12.38017368       0.28085369       0.04510936       0.50284976
O        0.72983336       1.05129373       1.62715769      -0.06257292      -0.24994557      -0.21276478
O        3.42146707       0.98614091       3.46201468      -0.01676278      -0.03103077      -0.12417834
O        0.80017382       0.95967567       4.66409063      -0.35620347      -0.10143636      -0.51600963
O        3.32696319       0.91009289       6.43720245       0.08517151       0.09736433       0.11032485
O        0.76971471       0.93960750       7.77845192       0.03443619       0.06670264       0.05082513
O        3.28191161       0.85840142       9.47633934       0.07565746       0.02190249       0.09144211
O        0.72098154       0.86099041      10.82726192      -0.09476817       0.18254714       0.24861991
O       -0.00731968       3.66213846       3.34154654      -0.28085369      -0.04510936      -0.50284976
O        2.54723907       3.58297586       4.89445877       0.09476817      -0.18254714      -0.24861991
O       -0.01369093       3.58556509       6.24538183      -0.07565746      -0.02190249      -0.09144211
O        2.49850559       3.50435877       7.94328070      -0.03443619      -0.06670264      -0.05082513
O       -0.05874257       3.53387356       9.28451824      -0.08517151      -0.09736433      -0.11032485
O        2.46804690       3.48429084      11.05763054       0.35620347       0.10143636       0.51600963
O       -0.15324686       3.45782495      12.25973034       0.01676278       0.03103077       0.12417834
O        2.78027534       3.67168307       2.01266217       0.06257292       0.24994557       0.21276478
60
Lattice="-0.0009465499897487462 0.0032699499279260635 5.72149133682251 -0.15151146054267883 8.711792945861816 -0.004132220055907965 -13.00536823272705 0.4651038348674774 0.004742130171507597" Properties=species:S:1:pos:R:3:forces:R:3 energy=-448.5894775390625 stress="-0.00028210540767759085 0.00032108084997162223 -4.890583295491524e-05 0.00032108084997162223 0.0011118775000795722 6.631069118157029e-05 -4.890583295491524e-05 6.631069118157029e-05 0.0017607944319024682" pbc="T T T"
Li      -7.13830233       5.30354643       4.25143814       0.02848246      -0.05709054       0.00612054
Li      -3.99702263       4.79030180       2.89192605       0.00438370      -0.04220791      -0.00200291
Li      -3.97578263       4.80096292       5.61613894       0.02781931      -0.03490500       0.02665469
Li      -0.33596629       0.36614409       4.01252508      -0.03053055       0.00379398      -0.13484532
Li     -10.25082588       0.67857641       1.42277265       0.01400683      -0.04450152       0.01959277
Li     -10.67143059       0.43927756       4.23894453      -0.04252499      -0.08448282      -0.01919265
Li      -6.02262497       3.88304591       1.39189315      -0.02862497       0.02885738       0.00315837
Li      -9.15757751       4.38984013       0.02930083      -0.02222641       0.04592342      -0.00477823
Li      -9.17717266       4.38395548       2.75056219      -0.04265274       0.02984814       0.03505480
Li      -2.52739716       8.71273994       1.37685716       0.03810562       0.06413394      -0.01747722
Li      -2.91638494       8.50204086       4.29031563      -0.00283088       0.03098579       0.01717714
Li     -12.84129333       8.83111954       1.16214132       0.03115577       0.00434137      -0.13367729
Mn      -5.37866879       7.08586311       2.81646514       0.05121323       0.00556490       0.00465586
Mn      -5.37288904       7.09874487       5.68496370       0.05017794       0.00592671       0.01235571
Mn     -11.08286285       6.18045759       2.79377103       0.05031986      -0.02863152       0.01829448
Mn     -11.02773666       6.18655109       5.67620468       0.04948447       0.04760223      -0.08329147
Mn      -2.07264686       3.00482011       5.65409040      -0.03128620      -0.04227837      -0.03465310
Mn      -2.13054848       2.99680901       2.81210017       0.00572084      -0.07957828      -0.02301187
Mn      -7.77996778       2.09555817       5.67835045      -0.01683675      -0.04539517      -0.06923028
Mn      -7.78602457       2.08248043       2.82182407      -0.01086528      -0.02433875       0.07314533
Mn     -11.86013603       2.91952920       1.40038466       0.03513980       0.00698454      -0.00672272
Mn     -11.78361511       2.93188953       4.25322199       0.06085662       0.00680728       0.00504366
Mn      -4.44901085       1.59406626       1.39692342      -0.02929470       0.03573641       0.04465561
Mn      -4.53624439       1.67800224       4.27289152      -0.01686190      -0.03627836       0.04141641
Mn      -8.61937428       7.50558090       1.40685236      -0.08506010       0.05372076      -0.02344309
Mn      -8.70106983       7.58842945       4.24809885      -0.03219290       0.03812842       0.09833716
Mn      -1.36572886       6.24478722       1.39250982      -0.05291312       0.00144183       0.00914667
Mn      -1.29479218       6.26048565       4.25933504      -0.03426343       0.01351650      -0.00411763
O       -8.22172832       0.89520115       1.37452543       0.05351561       0.01330468       0.01306239
O       -8.14034367       0.81078577       4.26278782       0.02006515       0.01328068       0.00071564
O       -0.94932801       2.53071284       1.39299572      -0.01023694      -0.03029544      -0.03301386
O       -0.90146106       2.43563461       4.17404318      -0.01787349      -0.03712114      -0.02736383
O      -12.24830437       6.74810123       1.31786454      -0.04937638       0.04004180      -0.02430764
O      -12.20448780       6.65843058       4.25617218      -0.01878430       0.03279935      -0.04296484
O       -4.97593117       8.35689926       1.40157127      -0.05378131       0.01740869       0.00729620
O       -4.94130516       8.28331089       4.23559713      -0.01925805       0.02091541       0.00958852
O       -1.83603656       5.09686804       5.68620253       0.00073500       0.00462942      -0.01606597
O       -1.81616604       5.01414919       2.81970739       0.04935880      -0.01706361       0.00734066
O       -7.50579977       7.00457525       5.63832045      -0.00302930      -0.01901241       0.01780191
O       -7.48570490       6.98123503       2.91179180       0.04185875      -0.04918014       0.12785807
O       -5.65510035       2.17203879       2.78009295       0.02765824       0.02764897       0.05784486
O       -5.67676210       2.18772745       0.06016937       0.00789094       0.07419800       0.07884473
O      -11.31344414       4.08144617       2.82497859      -0.01252587       0.00053942      -0.01671668
O      -11.33329582       4.16592598       5.68084002      -0.07001222       0.01862884       0.01444846
O      -11.72472191       1.52641344       2.81923461       0.03316968       0.01134284      -0.00787516
O      -11.72199059       1.55089343       5.69146967       0.02662775       0.02955918      -0.00850119
O       -3.22842717       1.18977046       5.67652941      -0.03737485       0.00229646       0.00740313
O       -3.09114361       1.25279474       2.81223226      -0.00042729      -0.00094387      -0.02554908
O       -1.44078624       7.65192556       5.67874289      -0.05006886       0.00049277      -0.00960427
O       -1.43954730       7.62727118       2.82755113      -0.02974412      -0.00179811      -0.01370709
O       -9.92975998       8.00522137       2.81046748       0.11642377      -0.07861597       0.05047050
O      -10.06491470       7.93463850       5.66590357       0.01733203      -0.03989401      -0.04505827
O       -5.14106560       5.74065590       1.38502610       0.03079329       0.01220421       0.00808537
O       -5.19877195       5.75356245       4.25776577       0.01351442       0.01591081       0.01700880
O       -9.80072784       5.73425484       1.38583636      -0.01374810       0.02828032      -0.03547013
O       -9.63513851       5.82027435       4.27412415      -0.03327110       0.00791585       0.01698467
O       -7.95860910       3.42307878       1.39476228      -0.03986428       0.02197395       0.02303036
O       -8.02504063       3.43606663       4.24388885      -0.01320268       0.01618046       0.01056732
O       -3.52712631       3.36350465       1.41891766       0.05595431       0.00591820       0.00244915
O       -3.35342360       3.45130777       4.24684858       0.00977985      -0.04517100      -0.02296819
24
Lattice="4.958395004272461 -0.09520286321640015 1.0749266147613525 -0.03685465827584267 8.530896186828613 -2.01621150970459 -0.090196393430233 -0.16379010677337646 5.226072311401367" Properties=species:S:1:pos:R:3:forces:R:3 energy=-169.40008544921875 stress="0.0013095657341182232 0.00043268330045975745 -0.0027235904708504677 0.00043268330045975745 0.0055438983254134655 -0.0009884524624794722 -0.0027235904708504677 -0.0009884524624794722 0.0038847257383167744" pbc="T T T"
Li       1.20942891       7.70645428       0.62344068       0.13811506       0.08003063       0.14709412
Li       3.62378955       0.48891312       3.68959236      -0.02318095       0.07670811      -0.07324502
Li       1.17360806       1.96446466       3.69957089       0.02393520       0.05576436       0.09260641
Li       1.24990463       4.99394941      -0.47476068       0.02318095      -0.07670811       0.07324502
Li       3.62741041       6.30731344       0.57518262      -0.13811506      -0.08003063      -0.14709412
Li       3.60988951       3.35461617       4.74133635      -0.02393520      -0.05576436      -0.09260641
Li       2.37332153       6.92498446       3.21234632       0.00000000      -0.00000000      -0.00000000
Mn       0.01914824      -0.06263116      -0.06141877      -0.22984251       0.95426524       0.14843474
Mn      -0.10384898       5.64070511       2.20132709       0.22984251      -0.95426524      -0.14843474
Mn       2.48100948       1.28014648       1.03593969      -0.35829335       0.58867157       0.02096535
Mn      -0.04235031       2.78903270       1.06995249       0.00000000      -0.00000000      -0.00000000
Mn       2.39268470       4.20272446       2.17889524       0.35829335      -0.58867157      -0.02096535
O        0.48254797       6.76359224      -1.39927983       0.06407748      -0.16187987      -0.14974575
O        3.12006640       8.20106030      -0.20741974       0.15543617      -0.27397576      -0.03023049
O        0.58697921       1.01455116       1.69685364      -0.19544418      -0.53470874      -0.49362239
O        0.59351414       3.89922380       2.89018488      -0.23244891       0.33404928       0.10994109
O        3.12464213       5.12639236       3.91542768       0.17516083       0.45126393       0.36856446
O        3.08989573       2.42819858       2.82533979       0.05310808       0.26824194       0.12702551
O        1.65885556       0.19268833       4.52547932      -0.17516083      -0.45126393      -0.36856446
O        4.18998337       1.41984856       5.55071926       0.23244891      -0.33404928      -0.10994109
O        1.78379822       3.05467248       0.38949513      -0.05310808      -0.26824194      -0.12702551
O        1.71677315       5.81269932       1.40603983      -0.15543617       0.27397576       0.03023049
O        4.35429144       7.25017548       2.59790301      -0.06407748       0.16187987       0.14974575
O        4.28671503       4.46831989       1.51798129       0.19544418       0.53470874       0.49362239
32
Lattice="5.065070629119873 -0.05608360096812248 0.3958410620689392 -1.4845942258834839 4.869485855102539 0.2420526146888733 -0.19797052443027496 -0.26133817434310913 12.038972854614258" Properties=species:S:1:pos:R:3:forces:R:3 energy=-228.59487915039062 stress="-0.008972572162747383 0.0007571408059448004 0.002314896322786808 0.0007571408059448004 -0.005552622955292463 0.000313689059112221 0.002314896322786808 0.000313689059112221 -0.005609114188700914" pbc="T T T"
Li      -0.76704341       2.40207553       1.62589800      -0.00000000       0.00000000      -0.00000000
Li       1.72694874       2.36887908       3.28099751      -0.02770480      -0.03023476      -0.04573271
Li       4.22474194       2.26385522       4.93776846      -0.06130828      -0.06115428      -0.06270716
Li       1.71091402       2.29806542       6.36813593       0.04037253       0.01971871       0.06036194
Li      -0.86602867       2.27140641       7.64538479      -0.00000000       0.00000000      -0.00000000
Li       1.62209952       2.18866396       9.31847477      -0.04037253      -0.01971871      -0.06036194
Li      -0.89172858       2.22287416      10.74884129       0.06130828       0.06115428       0.06270716
Li       1.80403519       2.37918854       0.36663941       0.02770480       0.03023476       0.04573271
Li       2.50778913      -0.06070907       1.70279217      -0.00000000       0.00000000      -0.00000000
Mn       0.01083514       0.05774806       0.07773707       0.04237551       0.04693240       0.07926146
Mn       3.52014875       4.69031954       3.56990004      -0.04237551      -0.04693240      -0.07926146
Mn       0.94551611       4.69093847       4.83969593      -0.10221890      -0.05100437      -0.04783943
Mn       3.45734859       4.66130781       6.61632061       0.01063064      -0.01159897      -0.03223462
Mn       2.40880394      -0.19137816       7.72227859      -0.00000000       0.00000000      -0.00000000
Mn      -0.12433519      -0.17457850       9.07028961      -0.01063064       0.01159897       0.03223462
Mn       2.38749743      -0.20420898      10.84691429       0.10221890       0.05100437       0.04783943
O        3.55854917       1.11803114       0.40392780      -0.01246313       0.07874919       0.02300713
O        0.73642057       1.02489412       1.60470259       0.00839623      -0.02627961      -0.05150951
O        3.41143751       0.97203130       3.44573545      -0.05096035      -0.00328806      -0.05144057
O        0.73336524       0.90796834       4.51636600      -0.01928598      -0.05852688      -0.05117256
O        3.36536241       0.94214630       6.45401192      -0.04531996       0.01881058      -0.02508039
O        0.81182796       0.96525073       7.75063181      -0.01159235       0.00284744      -0.03159366
O        3.33723211       0.88252568       9.49283504      -0.00823633       0.05252904      -0.01210289
O        0.77960086       0.92650467      10.82636929       0.01649231       0.04809551       0.00998293
O       -0.02756506       3.63003683       3.24369717       0.01246313      -0.07874919      -0.02300713
O        2.55341291       3.56022501       4.86022854      -0.01649231      -0.04809551      -0.00998293
O       -0.00421854       3.60420394       6.19376278       0.00823633      -0.05252904       0.01210289
O        2.52118540       3.52147865       7.93597841       0.01159235      -0.00284744       0.03159366
O       -0.03234879       3.54458356       9.23258591       0.04531996      -0.01881058       0.02508039
O        2.59964848       3.57876134      11.17023182       0.01928598       0.05852688       0.05117256
O       -0.07842433       3.51469779      12.24088669       0.05096035       0.00328806       0.05144057
O        2.79456329       3.72317338       2.04294634      -0.00839623       0.02627961       0.05150951
32
Lattice="5.011980056762695 -0.09833745658397675 0.8711757063865662 -0.4592776298522949 5.313897609710693 -0.2261880785226822 -0.07817229628562927 -0.09813865274190903 11.152514457702637" Properties=species:S:1:pos:R:3:forces:R:3 energy=-228.7893829345703 stress="-0.005934789776802063 0.0025481043849140406 0.0009935770649462938 0.0025481043849140406 -0.002831442514434457 0.001244309707544744 0.0009935770649462938 0.001244309707544744 -0.007433876395225525" pbc="T T T"
Li       2.60226798       1.13668954      10.89768028      -0.02806506      -0.09069568      -0.01396668
Li       1.92302632       3.95086718       0.96447819       0.05840884       0.06995713       0.01579382
Li       3.06324363       3.83924174       9.50110912       0.01642450       0.00208032       0.00915156
Li       3.89297462       1.19732416       8.30732059       0.00603341       0.01360307       0.00636684
Li       4.32099724       3.82180953       6.93169260      -0.00603341      -0.01360307      -0.00636684
Li       0.13874841       1.27822959       4.86672735      -0.01642450      -0.00208032      -0.00915156
Li       0.59972394       3.98078179       3.47015643       0.02806506       0.09069568       0.01396668
Li       1.35713792       1.26474273       2.25084424      -0.05840884      -0.06995713      -0.01579382
Li       4.14607191       2.55863619       2.04324913       0.00000000      -0.00000000       0.00000000
Mn       4.55007601       5.21325874       0.65895873      -0.07358966       0.00899742       0.02285802
Mn       3.74206805      -0.09598607       3.42753935       0.07358966      -0.00899742      -0.02285802
Mn       2.88242340       2.55596089       4.57551098       0.06587168      -0.01491881      -0.05496788
Mn       2.01091123       5.21396685       5.77872610       0.02855239      -0.01048732       0.02880101
Mn       1.60099602       2.55873561       7.18391848       0.00000000      -0.00000000      -0.00000000
Mn       1.19108069      -0.09649573       8.58911037      -0.02855239       0.01048732      -0.02880101
Mn       0.31956857       2.56151032       9.79232597      -0.06587168       0.01491881       0.05496788
O        1.15610600       4.61923027      10.18719864       0.01689189      -0.02591764       0.03539190
O        0.80472648       1.79480898       0.33472118       0.06964420      -0.07080998       0.00922792
O        2.04198003       1.97917414       9.00988770      -0.01498223      -0.09144254       0.00686132
O        2.44488096       4.64807606       7.60081863       0.02701784      -0.09491559       0.02362791
O        3.30429626       1.97663116       6.42512131      -0.01459012      -0.10265627      -0.03262277
O        3.72272301       4.61342382       5.00646353      -0.01653710      -0.02698885      -0.02037071
O        4.47545242       1.68641579       3.86408162       0.02449340      -0.05305530       0.05121271
O       -0.04109264       4.74241686       1.58111346       0.01754488       0.02615505       0.02138951
O        3.73851967       3.33271790      11.37493134      -0.02449340       0.05305530      -0.05121271
O        3.32125688       0.47319311       1.63420892      -0.01754488      -0.02615505      -0.02138951
O        4.49124908       0.40571001      10.23254967       0.01653710       0.02698885       0.02037071
O       -0.10230428       3.14084029       7.94271564       0.01459012       0.10265627       0.03262277
O        0.75711107       0.46939501       6.76701832      -0.02701784       0.09491559      -0.02362791
O        1.16001201       3.13829708       5.35794926       0.01498223       0.09144254      -0.00686132
O        2.04588604       0.49824086       4.18063784      -0.01689189       0.02591764      -0.03539190
O        2.47543788       3.42080092       2.88060117      -0.06964420       0.07080998      -0.00922792
32
Lattice="5.256374359130859 -0.14370204508304596 -9.99999993922529e-09 -0.865964949131012 9.7385835647583 -2.8810176849365234 -9.99999993922529e-09 9.99999993922529e-09 5.762036323547363" Properties=species:S:1:pos:R:3:forces:R:3 energy=-226.85487365722656 stress="-0.0092903021723032 -0.0010054002050310373 -5.6173583146135186e-11 -0.0010054002050310373 -0.005296340677887201 -2.9335092688320685e-10 -5.6173583146135186e-11 -2.9335092688320685e-10 0.0004766106139868498" pbc="T T T"
Li       2.62818718      -0.07185102       4.27699327       0.00000000      -0.00000000      -0.05212698
Li       3.72580576       2.25690532       2.88101840       0.02363256      -0.12343109      -0.00000001
Li      -0.43298250       4.86929178       1.44050944       0.00000000       0.00000000      -0.00000000
Li       0.66460377       7.33797646       0.00000044      -0.02363256       0.12343109       0.00000001
Li       2.62818718      -0.07185102       1.48504329      -0.00000000       0.00000000       0.05212698
Li       3.75489545       2.29841638       0.00000013       0.09551774       0.01109930       0.00000000
Li      -0.43298247       4.86929178      -1.44050884       0.00000000       0.00000000      -0.00000000
Li       0.63551402       7.29646540       2.88101864      -0.09551774      -0.01109930      -0.00000000
Li      -0.00000001       0.00000001       2.88101816       0.00000000       0.00000000      -0.00000000
Mn       0.00000000       0.00000000       0.00000000       0.00000000       0.00000000      -0.00000000
Mn       3.35097456       7.26446629      -1.42868423       0.32775661      -0.11058357       0.09678572
Mn       1.03943491       2.33041549       4.30970287      -0.32775661       0.11058357      -0.09678572
Mn       2.19930792       4.78816271       2.88101840      -0.04285833       0.07690006       0.00000000
Mn       3.35097456       7.26446629       1.42868495       0.32775661      -0.11058357      -0.09678573
Mn       1.03943491       2.33041549       1.45233369      -0.32775661       0.11058357       0.09678573
Mn       2.19110155       4.80671930       0.00000027       0.04285833      -0.07690006      -0.00000000
O       -0.15985806       8.57400990       1.53282464       0.00749389       0.15741302       0.05166907
O        1.82562482       1.30343831       2.88101816       0.07804126      -0.10886822      -0.00000001
O        2.89025474       3.65881872       1.43232477      -0.02857133      -0.04511027      -0.04526012
O        4.02981901       6.07646751       0.00000034      -0.01823789       0.13086179       0.00000001
O       -0.15985806       8.57400990      -1.53282356       0.00749389       0.15741302      -0.05166905
O        1.67686367       1.12430584       0.00000006      -0.07103732      -0.13455977      -0.00000001
O        2.89025474       3.65881872       4.32971239      -0.02857133      -0.04511027       0.04526011
O        3.99495411       6.08916283       2.88101864      -0.02001497       0.13377194       0.00000001
O        4.55026770       1.02087188       4.41384220      -0.00749389      -0.15741302       0.05166905
O        0.36059052       3.51841402       2.88101840       0.01823789      -0.13086179      -0.00000001
O        1.50015473       5.93606281       1.44869399       0.02857133       0.04511027       0.04526012
O        2.56478477       8.29144382       0.00000050      -0.07804126       0.10886822       0.00000001
O        4.55026770       1.02087188       1.34819412      -0.00749389      -0.15741302      -0.05166907
O        0.39545548       3.50571895       0.00000017       0.02001497      -0.13377194      -0.00000001
O        1.50015473       5.93606281      -1.44869339       0.02857133       0.04511027      -0.04526011
O        2.71354580       8.47057629       2.88101864       0.07103732       0.13455977       0.00000001
32
Lattice="5.016480445861816 -0.003812560113146901 0.901369571685791 -0.9145008325576782 6.357098579406738 0.867024302482605 -0.10784401744604111 0.001287749968469143 9.386944770812988" Properties=species:S:1:pos:R:3:forces:R:3 energy=-228.74966430664062 stress="0.0023082392290234566 5.1388204155955464e-05 -0.0005159231368452311 5.1388204155955464e-05 0.0018167615635320544 0.0006076382705941796 -0.0005159231368452311 0.0006076382705941796 0.0006879914435558021" pbc="T T T"
Li       0.62892252       4.38452005       2.56210971      -0.02740400       0.01197160       0.00577358
Li       1.08185172       1.18996739       7.03622484       0.04563389       0.01655568       0.09029116
Li       2.89855099       5.20958090       4.18448734      -0.03316147      -0.02938136      -0.05600594
Li       3.37249398       1.99927616       8.60090542       0.05028823       0.00455056      -0.00686860
Li       0.36605555       5.94489431       5.11792564      -0.05028823      -0.00455056       0.00686860