24
Lattice="4.951339244842529 -0.0963011309504509 1.0859464406967163 -0.05212828144431114 8.537811279296875 -1.9743491411209106 -0.07715559750795364 -0.13891519606113434 5.2224626541137695" Properties=species:S:1:pos:R:3:forces:R:3 energy=-169.2920379638672 stress="-0.0042179301381111145 -0.0020851115696132183 0.002148739993572235 -0.0020851115696132183 0.0008123519946821034 0.004364491440355778 0.002148739993572235 0.004364491440355778 -0.0035058893263339996" pbc="T T T"
Li       1.18681681       7.72343969       0.65266633       0.11242211      -0.00480510       0.10063777
Li       3.63351941       0.51285022       3.70386910      -0.06126463      -0.08471650      -0.06851861
Li       1.17471361       1.98784387       3.70530725       0.02337286      -0.02474781       0.04077758
Li       1.23163056       4.99010706      -0.45251569       0.06126463       0.08471650       0.06851861
Li       3.62620497       6.31733751       0.62434107      -0.11242211       0.00480510      -0.10063777
Li       3.61328077       3.37620687       4.76851225      -0.02337286       0.02474781      -0.04077758
Li       2.36793303       6.95092678       3.24973345      -0.00000000      -0.00000000       0.00000000
Mn      -0.00473414      -0.04538602      -0.06020146       0.20590255      -0.06440459       0.04439222
Mn      -0.08145516       5.64465284       2.22561169      -0.20590255       0.06440459      -0.04439222
Mn       2.45316172       1.29878700       1.03634632       0.17003287      -0.02041502       0.16859248
Mn      -0.04309458       2.79962921       1.08270347      -0.00000000      -0.00000000       0.00000000
Mn       2.41198826       4.20417881       2.21501017      -0.17003287       0.02041502      -0.16859248
O        0.48700133       6.77030611      -1.32921922      -0.18250507      -0.00594374      -0.35802647
O        3.11231375       8.20751381      -0.16005157      -0.06804936      -0.02372553       0.00742203
O        0.62287140       1.04716098       1.73077381      -0.32190499      -0.26668179      -0.32474172
O        0.59372950       3.91966367       2.88432050      -0.03478802       0.07197037       0.29986086
O        3.09319901       5.13341665       3.92398906       0.28619993       0.21305451       0.23770820
O        3.07376075       2.44725847       2.83100486       0.11553592      -0.03407580       0.10025501
O        1.69479525       0.23063396       4.54982996      -0.28619993      -0.21305451      -0.23770820
O        4.19426489       1.44437861       5.58949566       0.03478802      -0.07197037      -0.29986086
O        1.79138911       3.05570745       0.42035165      -0.11553592       0.03407580      -0.10025501
O        1.70070791       5.83325577       1.43705583       0.06804936       0.02372553      -0.00742203
O        4.32602024       7.27047110       2.60622668       0.18250507       0.00594374       0.35802647
O        4.24227858       4.45580482       1.52058280       0.32190499       0.26668179       0.32474172
52
Lattice="0.6630520224571228 6.494410037994385 -0.0059449998661875725 6.493420124053955 0.6723949909210205 0.00609100004658103 -2.8737800121307373 2.8694050312042236 -11.901664733886719" Properties=species:S:1:pos:R:3:forces:R:3 energy=-351.8025207519531 stress="0.002596470294520259 -0.0005428188014775515 -0.00037080494803376496 -0.0005428188014775515 0.0025910125114023685 0.00037173263262957335 -0.00037080494803376496 0.00037173263262957335 0.0028235488571226597" pbc="T T T"
Li      -0.92166525       6.28865910     -10.91146946      -0.00039290      -0.00068821      -0.00069985
Li      -1.14709806       6.45661259      -6.82106495       0.00963639      -0.12958138       0.02628560
Li       1.12241936       8.37022495      -8.98148727       0.07702788       0.04192471      -0.00561218
Li       0.68266195       4.62931108      -9.05188942      -0.12899081       0.00828711      -0.02564788
Li       0.62253809       6.39882755      -7.93634653       0.00999727       0.00991867      -0.00041615
Li       0.51425898       4.85338211      -4.96114922      -0.00074416       0.00041293       0.00039762
Li       0.40554315       3.30823708      -1.98553610      -0.01011559      -0.00921396       0.00000183
Li       0.34897956       5.07920790      -0.87088346       0.13135786      -0.00914908       0.02603778
Li      -0.09241062       1.33648193      -0.93986911      -0.07595146      -0.04085566       0.00560095
Li      -0.31701180       3.34019589     -10.68391132      -0.01646961       0.08775857      -0.13452779
Li       2.59358382       6.90009737      -6.89062929       0.04195690       0.07760326       0.00483228
Li       2.17629743       3.25263476      -3.10056877      -0.00876026       0.13050900      -0.02565989
Li       1.99323785       3.37779593     -10.90627289       0.00011110       0.00057031       0.00104252
Li      -2.19013834       2.74085975     -11.13214111       0.01730013      -0.08494178       0.13510403
Li       3.46327353       4.25249100      -4.73424530      -0.08755805       0.01655134      -0.13443400
Li       3.42837453       1.94174564      -4.95460796      -0.00087666      -0.00076901      -0.00042136
Li       4.06020260       6.12631321      -5.18210268       0.08595427      -0.01707348       0.13461691
Li       4.92862749       3.47831678      -3.02542186      -0.04197792      -0.07630647      -0.00454100
Mn      -1.11787415       3.19020081      -6.95842266       0.01652710      -0.02567497       0.06306796
Mn       0.18351883       1.60690260      -4.95781946      -0.00032503      -0.00173953      -0.00432806
Mn       2.14724588       6.51674891      -2.96377945      -0.01763500       0.02482427      -0.06347885
Mn       1.95753956       3.39977455      -6.92749548      -0.08425841       0.02933781       0.06054099
Mn       2.32455826       6.62454081     -10.90890026      -0.00097584       0.00027947       0.00166485
Mn       3.61199999       5.05324841      -1.00755882       0.02604634      -0.01802727       0.06470633
Mn       3.40756035       1.97788823      -0.97685272      -0.03255947       0.08723251       0.07094023
Mn       4.11481380       8.40132999      -8.93923473       0.03029727      -0.08343497      -0.06232308
Mn       3.91002822       5.32560635      -8.90843391      -0.02585530       0.01653845      -0.06175800
Mn       5.56546688       6.98048639      -2.98833084       0.08687163      -0.03604152      -0.07007392
O       -1.08876467       6.31088066      -8.83532619      -0.11214299      -0.02445357      -0.01365708
O       -1.27647626       3.17588878      -8.94731426      -0.06995274       0.00162570       0.01491752
O        0.49172091       5.01959276      -2.88498998       0.02461003       0.11630184      -0.01279685
O        0.26045853       1.59959865      -2.97644997       0.02245101      -0.11904928      -0.03167905
O        0.76838410       8.10718536      -6.94538403      -0.02299564       0.11984923       0.03172499
O        0.53750527       4.68743038      -7.03749800      -0.02460836      -0.11436676       0.01352309
O        0.97484964       8.04033661     -10.98003769      -0.00325297      -0.02872986      -0.12924495
O        0.62741941       4.88157368     -10.96650124       0.01300560       0.09180450      -0.15762451
O        2.26531839       6.75450373      -4.89261389      -0.02962027      -0.00255530       0.12866014
O        1.92302501       3.30565000      -5.01577902      -0.09140776      -0.01256898      -0.15184513
O        2.30409837       6.52943754      -0.97482872       0.07205835      -0.00182267      -0.01507257
O        2.33084273       6.54681444      -8.92717552       0.11943530      -0.02280332      -0.03231886
O        1.98854256       3.22152138      -8.88296318       0.05826184       0.01780137       0.06615007
O        2.11691093       3.39553905      -1.08637726       0.11631006       0.02450100       0.01278993
O        4.02058363       8.36645889     -10.85107327      -0.01185138      -0.09141056       0.15179361
O        3.67274737       5.20728493     -10.83723927       0.00409867       0.02924158       0.12662657
O        3.62568402       5.21110392      -2.99649382      -0.00390612       0.06899758       0.01550973
O        3.58522344       1.94682372      -2.93199658      -0.02005472      -0.05856935       0.06446013
O        3.93663335       8.43240261      -6.98388958       0.01825032       0.06008939      -0.06570763
O        3.89636612       5.16737127      -6.91943884       0.00268424      -0.07021675      -0.01470286
O        5.53442001       7.15845442      -1.03325558      -0.06054998      -0.02162377      -0.06426493
O        5.19084597       3.83205700      -0.98865098      -0.11983644       0.02256667       0.03121822
O        5.59967232       7.07415390      -4.90038013       0.09051582       0.01235823       0.15726672
O        5.25843143       3.62602377      -5.02324772       0.02886047       0.00478196      -0.12664416
40
Lattice="-0.0012280000373721123 -3.9395830631256104 -3.9743459224700928 -0.0012280000373721123 3.9395830631256104 -3.9743459224700928 11.861085891723633 0.0 3.9780540466308594" Properties=species:S:1:pos:R:3:forces:R:3 energy=-306.7684326171875 stress="-0.23871469497680664 -0.0 0.000597804959397763 -0.0 -0.23618490993976593 0.0 0.000597804959397763 0.0 -0.2305336594581604" pbc="T T T"
Li       2.94603109      -0.98553789      -4.96684408      -0.13188531      -0.00974364       0.00466930
Li       4.95817184       0.98436785      -2.97946739       0.13672999       0.00050829      -0.00734909
Li       8.87780190       0.98553789       0.99652898      -0.13188531       0.00974364       0.00466930
Li      10.88871479       2.95521522      -0.99044037       0.13672999      -0.00050829      -0.00734909
Mn      11.83599949      -1.97028792      -1.97982383       0.26681998       0.03436492       0.02824131
Mn      11.83595943       0.00068155       0.00081515       0.23688573      -0.01334704      -0.05856006
Mn       2.00003910       1.96869230      -3.97643089      -0.24684611       0.03374257      -0.04716461
Mn       1.99977732       0.00062639      -1.98365426      -0.25050503      -0.00855162       0.03762886
Mn       3.95219326      -1.96910596      -1.98683929      -0.01000027      -0.00785324       0.00277466
Mn       3.95310402       0.00161523       0.00108492       0.00454139       0.00313183       0.00593004
Mn       5.90545702      -1.96929514      -3.96885085       0.26681998      -0.03436492       0.02824131
Mn       5.90418863      -0.00068155      -5.96255779       0.23688573       0.01334704      -0.05856006
Mn       7.93058205       1.97089064      -1.98740375      -0.24684611      -0.03374257      -0.04716461
Mn       7.92909241      -0.00062639      -3.96897316      -0.25050503       0.00855162       0.03762886
Mn       9.88273621      -1.97047698       0.00218767      -0.01000027       0.00785324       0.00277466
Mn       9.88241863      -0.00161523      -1.98423409       0.00454139      -0.00313183       0.00593004
O        0.10479837       1.85270309      -3.86161637      -0.93240738       1.31227374      -1.27738070
O        0.10026641       0.11901480      -2.10080385      -1.00469255      -1.34650624       1.14211631
O        1.87075436       0.11693864      -3.86292410       0.96355098      -1.31648815      -1.20037663
O        1.88187706       1.84918904      -2.10319972       1.15986729       1.30127561       1.11606479
O        2.12486720      -1.83165395      -1.85560548      -1.64434946      -1.54114556      -1.39245081
O        2.12712097      -0.13803905      -0.12703465      -1.64952350       1.47038555       1.40943110
O        3.86689830      -0.08693084      -1.90702140       1.29208124       1.08902121      -1.16817534
O        3.86036325       2.04998970      -4.05735111       1.25045323      -1.19128144       1.04673040
O        4.03222942      -2.05292463      -3.88675809      -1.43096447       1.16472137      -0.99817479
O        4.04183531       0.08543380      -6.03839445      -1.24090016      -1.11350882       1.19969475
O        5.77951479       0.13719597       0.13175616       1.63417566      -1.53592205      -1.36501610
O        5.77854824      -2.10903215      -2.11449671       1.59696877       1.50600743       1.52136636
O        6.03534126       2.08687997      -1.87258935      -0.93240738      -1.31227374      -1.27738070
O        6.02958155      -0.11901480      -4.08612299      -1.00469255       1.34650624       1.14211631
O        7.80252552      -0.11693864       2.10044885       0.96355098       1.31648815      -1.20037663
O        7.81241989       2.09039402      -0.11417269       1.15986729      -1.30127561       1.11606479
O        8.05643559       0.13803905      -2.11235356      -1.64952350      -1.47038555       1.40943110
O        8.05541039      -2.10792899       0.13342156      -1.64434946       1.54114556      -1.39245081
O        9.79621315       0.08693084      -3.89234042       1.29208124      -1.08902121      -1.16817534
O        9.79090595       1.88959336      -2.06832409       1.25045323       1.19128144       1.04673040
O        9.97360611      -0.08543380      -0.07502135      -1.24090016       1.11350882       1.19969475
O        9.96277237      -1.88665843      -1.89773118      -1.43096447      -1.16472137      -0.99817479
O       11.70909119      -1.83055091      -0.12546960       1.59696877      -1.50600743       1.52136636
O       11.70882988      -0.13719597      -1.85356283       1.63417566       1.53592205      -1.36501610
24
Lattice="5.818164825439453 -0.06351696699857712 1.389403223991394 -0.41262343525886536 5.857001304626465 1.3344182968139648 -0.035860538482666016 0.06829801946878433 6.516107082366943" Properties=species:S:1:pos:R:3:forces:R:3 energy=-169.39962768554688 stress="0.00736895902082324 0.004573014564812183 0.00039595726411789656 0.004573014564812183 0.008542132563889027 0.0002108983026118949 0.00039595726411789656 0.0002108983026118949 0.003308272222056985" pbc="T T T"
Li       4.46099329       4.93205738       6.56811142      -0.04170974       0.00691740      -0.01330186
Li       2.91921854       0.00187480       0.73288673      -0.01940103      -0.04678624       0.05609459
Li       0.88897187       0.98834866       2.62600470      -0.00000000       0.00000000       0.00000000
Li       2.72248650       2.83811855       1.40772343       0.04170974      -0.00691740       0.01330186
Li       0.68266016       3.91684937       3.29321384      -0.00000000       0.00000000       0.00000000
Li       4.67688465       1.91129982       5.90852976       0.01940103       0.04678624      -0.05609459
Li       3.79805446       0.95659018       3.32070637      -0.00000000       0.00000000       0.00000000
Mn       5.76387024      -0.02722837       1.38838804      -0.01209035      -0.30310991       0.11406731
Mn       3.59174252       3.88509083       3.98791552      -0.00000000       0.00000000       0.00000000
Mn       1.83223283       1.94040298       5.25302839       0.01209035       0.30310991      -0.11406731
Mn       5.57779121       2.84623289       2.06512213       0.20669989       0.32879496       0.01514181
Mn       1.60568845       4.92394304       5.91071272      -0.20669989      -0.32879496      -0.01514181
O        0.98029202       4.45204210       7.74510956      -0.24001461       0.14408828      -0.00538906
O        4.89553118       5.26989889       4.50667000       0.04080333       0.04762420       0.08394634
O        3.17560053       0.47293147       5.23595524      -0.02058364       0.14126238       0.01333847
O        5.04584455       2.54909682       3.91277766      -0.04184935       0.03576516       0.01808990
O        3.18301725       3.41266894       5.80611420       0.06609247      -0.28458965       0.19615251
O        1.34298801       1.50494075       7.08772516       0.03745951      -0.26941904       0.18612771
O        2.13763523       5.22107935       4.06305695       0.04184935      -0.03576516      -0.01808990
O        0.39909518       0.54005462       4.68039131      -0.03745951       0.26941904      -0.18612771
O        4.38464212       1.50854111       7.92156887       0.02058364      -0.14126238      -0.01333847
O        0.34916773       3.44995451       5.35742569       0.24001461      -0.14408828       0.00538906
O        4.00046253       4.35750675       2.16972041      -0.06609247       0.28458965      -0.19615251
O        2.28794885       2.50027728       3.46916485      -0.04080333      -0.04762420      -0.08394634
32
Lattice="-5.753546714782715 -0.3462105393409729 -0.07763905078172684 -2.93680477142334 -0.22140401601791382 8.425259590148926 -0.42749840021133423 5.860336780548096 0.02217308059334755" Properties=species:S:1:pos:R:3:forces:R:3 energy=-220.8653564453125 stress="0.0030963628087192774 -0.0009794521611183882 0.0012297460343688726 -0.0009794521611183882 0.005755414254963398 9.899499855237082e-05 0.0012297460343688726 9.899499855237082e-05 -0.0037702135741710663" pbc="T T T"
Li      -1.55698407       1.36514008       2.09994698      -0.01583760       0.00431404       0.01195720
Li      -4.44005013       1.19437397       2.06562734       0.01504132      -0.00292960      -0.01081450
Li      -7.55750132       3.92614532       6.26772070      -0.00163035       0.00036462       0.00070331
Li      -4.68056583       4.09963512       6.30659199       0.00053099       0.00264925       0.00014749
Li      -1.77184737       4.29613829       2.11309433      -0.00856840       0.00026761       0.00112792
Li      -4.65272093       4.12403965       2.07459855       0.00759853      -0.00230284       0.00326330
Li      -3.13111949       2.82736754       0.28956681       0.01919710      -0.07446324      -0.02215337
Li      -6.00619411       2.65300202       0.24527977       0.00921793      -0.06266315      -0.02282208
Li      -6.17167997       5.42075300       3.86462903      -0.00899951       0.06164153       0.02717300
Li      -3.29325175       5.59265709       3.89776635      -0.01983093       0.07245536       0.02551235
Mn      -7.34398651       0.99590588       6.25607920      -0.04772096      -0.02275219       0.00719997
Mn      -4.46669436       1.17047954       6.29544401       0.02963948      -0.01663461       0.00733377
Mn      -3.26300573       5.66891813       0.11032787      -0.07776760       0.04870085       0.08701995
Mn      -6.13870716       5.50144005       0.07481286      -0.04814828       0.00350648       0.07959171
Mn      -6.03951788       2.57233381       4.03569889       0.05272850       0.00536415      -0.11094409
Mn      -3.16184545       2.75059891       4.07728958       0.07339205      -0.02096393      -0.10851359
O       -4.35144997       1.06341469      -0.02654478      -0.10481250       0.12395449       0.15934069
O       -1.47210550       1.23390949       0.02742649      -0.12399962       0.11262070       0.04275784
O       -1.64645004       1.49610174       4.19190931       0.10887977      -0.12334970      -0.15503795
O       -4.52524519       1.32602727       4.13787937       0.12465924      -0.11806569      -0.03456042
O       -5.74628973      -0.37000543       1.86654925      -0.01883048       0.03143116      -0.04518491
O       -2.87291193      -0.19483007       1.90057528      -0.01478403       0.01169163       0.00739808
O       -3.12434053       2.75456285       2.26468539       0.01286852      -0.01362791       0.00132126
O       -6.00474072       2.58347774       2.22200131       0.02123125      -0.03195296       0.03772532
O       -6.05853033       2.41666675       6.13540554       0.15886214       0.12648661      -0.03036738
O       -3.19375896       2.61071229       6.17143059       0.11537728       0.03495958      -0.03060240
O       -2.87659836      -0.07819085       6.45567846      -0.15142091      -0.12435779       0.02821961
O       -5.73980474      -0.27112919       6.41917944      -0.11434636      -0.02949506       0.03233122
O       -1.79386890       4.12781382       4.24008131      -0.04192175       0.08512933       0.01325364
O       -4.67108393       3.95666146       4.19125509      -0.05113800       0.03297867       0.05035434
O       -7.56836176       4.07076025       8.37266541       0.04750210      -0.08800855      -0.00819650
O       -4.69077969       4.24147987       8.42153168       0.05303107      -0.02694883      -0.04453475
48
Lattice="5.129519939422607 0.020762940868735313 4.014560699462891 0.6378012895584106 6.1258745193481445 -2.1152167320251465 -4.860622406005859 6.230118274688721 7.539702892303467" Properties=species:S:1:pos:R:3:forces:R:3 energy=-339.3961181640625 stress="-0.007519873790442944 0.0018900049617514014 7.40632603992708e-05 0.0018900049617514014 -0.00382270198315382 0.0019032919080927968 7.40632603992708e-05 0.0019032919080927968 -0.0086895190179348" pbc="T T T"
Li      -0.28040537       8.25606346       6.76172638       0.00480261      -0.02633927      -0.00964475
Li      -0.73537916       2.07185698       2.04418039      -0.00117647       0.02459552       0.00908637
Li      -2.19680643      10.22417450       6.12779903       0.02842417      -0.04130143      -0.03330458
Li       2.47942209       4.05628777       5.42497349      -0.00244822      -0.02563176       0.00928636
Li       1.81883252       6.22959948       0.56288975      -0.02733356       0.03763917       0.03719577
Li       1.63431466       6.29237700       7.39547539       0.00499645       0.02217810      -0.00770350
Li       1.11518228       8.20193195       2.69984198      -0.02691539       0.00955229       0.06790574
Li       0.93167502       8.26436329       9.53308773       0.00248946      -0.01700972       0.04507967
Li       3.18205857       2.08430815       3.28736663       0.00087915       0.01516295      -0.03907454
Li      -1.49316263       8.25183678       3.99083614       0.03027444      -0.01116525      -0.06647667
Li      -0.26200193       4.14743710       6.79982901       0.00398240      -0.01254985      -0.03735926
Li      -0.07792850       4.08434963      -0.03091420      -0.02259489      -0.00570750       0.03989727
Li      -0.93785065       6.24354124       8.83680058       0.02796446      -0.00031855      -0.03693221
Li      -0.75378001       6.18047142       2.00607014      -0.00097106       0.00949449       0.03836584
Mn       2.37585759       8.23717785       5.35294342      -0.01303176       0.01906933      -0.04695367
Mn       1.92383862       2.04773808       0.63353336      -0.08552173       0.08350189      -0.01938879
Mn       0.43108737       6.20069170       4.79027414      -0.02595708      -0.08211491      -0.04282414
Mn       0.61022645       6.13429403      -2.04154611       0.14070371       0.07673008      -0.02157044
Mn      -0.98822916      10.31955910       8.73223877      -0.14298362      -0.07249710       0.02251111
Mn      -1.44733930       4.12772369       4.01572657       0.05614845       0.05485117       0.05078675
Mn      -2.18329883       6.22348118       6.15334129      -0.05778204       0.04474874      -0.00805093
Mn       3.11970115       6.18434763       3.34219265      -0.04994209       0.04546280       0.04049081
Mn       1.16750169       4.10443068       2.65258074       0.05976667      -0.04916829       0.00506045
Mn       1.63179612      10.29020119       7.36299372       0.04719901      -0.04751108      -0.03113768
O        1.23897600       6.08823156       2.74496412       0.04718968       0.03659293      -0.13238999
O        1.04973221       6.15098095       9.58964825      -0.06413825      -0.00476986       0.11416864
O        3.06399131       4.19768476       3.23082519       0.06635579       0.00224185      -0.11206730
O       -1.61695158      10.36554623       3.94569445      -0.04547455      -0.03824689       0.13359611
O        0.53030366       8.12996006       4.72725630      -0.00537792       0.09448039       0.02476113
O        0.07481180       1.93533266       0.00673943      -0.03395447      -0.04868324       0.01599793
O       -1.09056056       8.39255714       8.79917145       0.04973611       0.03572089      -0.00998787
O       -0.90829837       8.32384205       1.96341515       0.00703452      -0.09407429      -0.02152946
O       -0.22780724      10.32461357       6.84669113      -0.10108184      -0.00402614       0.15496030
O       -0.67223144       4.13578653       2.11400986       0.02615595       0.00302518      -0.19346339
O       -0.34356013       6.19211769       6.69192123      -0.02579750      -0.00407451       0.19747789
O       -0.15015911       6.12916756      -0.15603817       0.10434487       0.00138122      -0.15507664
O        3.92199922       6.05917788       1.24680364       0.02174516      -0.04389134       0.00153320
O       -1.39568949       6.10469341       4.06903553      -0.08647196       0.01615589       0.02546746
O        0.37988991       4.22321177       4.73685265       0.08402338      -0.01454724      -0.02499405
O        0.82953972      10.41536713       9.45843697      -0.01943931       0.04145303      -0.00098720
O       -2.31359005       8.16233158       6.31246519       0.00644609       0.01061003       0.02631827
O        3.00140524       8.12453938       3.49004555       0.01255747      -0.00248419      -0.00576206
O        1.29781175       2.16556096       2.49342871       0.00276752      -0.01955747      -0.02255654
O        1.75013852       8.34999943       7.21519232      -0.01064954      -0.00096088       0.01027881
O        2.00834322       3.98484874       0.56463331       0.07051726       0.02174293      -0.00105436
O        1.82055330       4.04471540       7.39901876      -0.08365711       0.01299954       0.00018795
O       -3.02412081       6.34303331       8.24127197      -0.05838042      -0.03824759       0.00726250
O        2.29319000       6.30397224       5.42143679       0.08457604      -0.01451204       0.00261372
32
Lattice="5.059617042541504 0.0 -1.2272570133209229 -1.3656270503997803 7.108065128326416 -0.7422360181808472 0.0 0.0 7.42303991317749" Properties=species:S:1:pos:R:3:forces:R:3 energy=-224.3058319091797 stress="-0.054545462131500244 -0.01510519627481699 0.04113907366991043 -0.01510519627481699 -0.21895582973957062 -0.009596740826964378 0.04113907366991043 -0.009596740826964378 -0.18060360848903656" pbc="T T T"
Li       2.58997941       1.33276224      -0.36556131       0.02742868      -0.10648034      -0.24994998
Li       4.31663227       2.22127032       1.86507785      -0.09065882      -0.16955322       0.21703941
Li       0.98366851       3.10977840       5.32297373       0.09065882       0.16955322      -0.21703941
Li       2.71032143       3.99828649       0.13057306      -0.02742868       0.10648034       0.24994998
Li      -0.62264252       4.88679457       3.58846927      -0.00232504       0.33228490       0.08176833
Li       1.10401046       5.77530289       5.81910849       0.06146010       0.12600225      -0.69494164
Li       2.83066344       6.66381073       0.62670743      -0.06146010      -0.12600225       0.69494164
Li       0.86332649       0.44425407       4.82683945       0.00232504      -0.33228490      -0.08176833
Li       1.96733701       6.21955681       3.22290778       0.00000000      -0.00000000       0.00000000
Mn       0.00000000       0.00000000       0.00000000      -1.06868804      -0.47505373      -1.47945273
Mn       1.84699500       3.55403256       2.72677350       0.21736653       2.71341848       0.57354295
Mn       1.72665298       0.88850814       2.23063922       1.02960575      -0.72696799       1.20145798
Mn       3.45330596       1.77701628       4.46127844      -0.21736653      -2.71341848      -0.57354295
Mn       0.12034200       2.66552448       0.49613437       0.00000000      -0.00000000       0.00000000
Mn       3.57364798       4.44254065       4.95741272      -1.02960575       0.72696799      -1.20145798
Mn       0.24068400       5.33104897       0.99226874       1.06868804       0.47505373       1.47945273
O        0.46193445       1.53507197       6.48670721       0.86589789       0.35155419      -1.44020402
O        2.18858743       2.42358017       1.29430640       0.74907845      -0.11698835      -1.92003942
O        3.91523409       3.31209540       3.52494597       0.86160046       0.59529030      -1.50096869
O        0.58227646       4.20059633      -0.44019842       0.40442371       0.21771666      -1.74616182
O        2.30892444       5.08910465       1.79044199      -0.08656768      -0.41166192      -1.85354447
O       -1.02403450       5.97761250       5.24833679       0.93448770       0.14382088      -0.71263158
O        0.70261848       6.86612082       0.05593597       0.41000780       0.30092299      -1.66590178
O        3.79489851       0.64656383       3.02881098      -0.08237827       1.02770424      -1.63352668
O        4.71802568       1.13044536       0.20521089      -0.40442371      -0.21771666       1.74616182
O        1.38506198       2.01895356       3.66310692      -0.86160046      -0.59529030       1.50096869
O        3.11171484       2.90746164       5.89373875      -0.74907845       0.11698835       1.92003942
O       -0.22125044       3.79597688       1.92859411      -0.86589789      -0.35155419       1.44020402
O        1.50540388       4.68447781       4.15923405       0.08237827      -1.02770424       1.63352668
O        3.23205686       5.57298613      -1.03316689      -0.41000780      -0.30092299       1.66590178
O       -0.10090708       6.46149397       2.42472935      -0.93448770      -0.14382088       0.71263158
O        2.99137282       0.24193721       5.39760447       0.08656768       0.41166192       1.85354447
32