32
Lattice="2.8749094009399414 9.99999993922529e-09 -0.0 1.4374552965164185 9.681178092956543 1.7403570413589478 -9.99999993922529e-09 -0.2672763466835022 10.732826232910156" Properties=species:S:1:pos:R:3:forces:R:3 energy=-228.18287658691406 stress="0.003452321980148554 4.1193959354757226e-10 -4.369056505471036e-11 4.1193959354757226e-10 0.007143180817365646 -0.0007393475389108062 -4.369056505471036e-11 -0.0007393475389108062 0.007424084469676018" pbc="T T T"
Li       1.43745494       2.34645987       1.14035523      -0.00000001      -0.12592880      -0.06256114
Li       1.43745518       7.25264406       3.35105658       0.00000000       0.05523246       0.00982344
Li       2.87490964       2.29489541       3.75571346      -0.00000000      -0.05523246      -0.00982344
Li       2.87490988       7.20107937       5.96641493       0.00000001       0.12592880       0.06256114
Li       1.43745494       2.25078440       6.45363808      -0.00000000      -0.05053498      -0.09858218
Li       1.43745518       7.05714273       8.66265678      -0.00000000      -0.05481762      -0.11221181
Li       2.87490964       2.22312021       9.17693996       0.00000000       0.05481762       0.11221181
Li       2.87490988       7.02947855      11.38595867       0.00000000       0.05053498       0.09858218
Li       1.43745470      -0.06681909       2.68320656      -0.00000000      -0.00000000      -0.00000000
Mn       2.87490940       0.06239267       0.14215158       0.00000000       0.01163924       0.00362177
Mn       1.43745530       9.48514652       6.96461868      -0.00000000      -0.01163924      -0.00362177
Mn       2.87490988       4.80060577       2.20987201      -0.00000000      -0.04698467       0.00607862
Mn       1.43745506       4.74693346       4.89689827       0.00000000       0.04698467      -0.00607862
Mn       2.87490988       4.66356707       7.57701063      -0.00000000      -0.06393198       0.01266498
Mn       1.43745470      -0.20045726       8.04961967      -0.00000000      -0.00000000      -0.00000000
Mn       1.43745506       4.61669588      10.26258564       0.00000000       0.06393198      -0.01266498
O        1.43745482       0.85016054      10.05605412      -0.00000000      -0.02789284      -0.20976840
O        1.43745506       5.95925236       1.52853358      -0.00000000      -0.03091110       0.11075789
O        2.87490964       1.04207635       1.66659534       0.00000000       0.03534181       0.09049353
O        2.87490988       5.90689468       4.20040035      -0.00000000      -0.05176507       0.12250503
O        1.43745482       0.97429651       4.65947723       0.00000000       0.07548124       0.08835820
O        1.43745506       5.80769253       6.89856577      -0.00000001      -0.11049222       0.09388345
O        2.87490964       0.88325477       7.25473452      -0.00000001      -0.16144060      -0.16390884
O        2.87490988       5.77754307       9.56811428       0.00000000       0.00569286       0.10264459
O        1.43745494       3.64064455       2.90636969       0.00000000       0.05176507      -0.12250503
O        1.43745530       8.50546360       5.44017506      -0.00000000      -0.03534181      -0.09049353
O        2.87490964       3.58828688       5.57823658       0.00000000       0.03091110      -0.11075789
O        2.87490988       8.43010235       7.78354216       0.00000000       0.02789284       0.20976840
O        1.43745494       3.50271988       8.27148247      -0.00000000      -0.00569286      -0.10264459
O        1.43745518       8.39700794      10.58486176       0.00000001       0.16144060       0.16390884
O        2.87490964       3.47257066      10.94103050       0.00000001       0.11049222      -0.09388345
O        2.87490988       8.57324314       2.44729280      -0.00000000      -0.07548124      -0.08835820
48
Lattice="-0.1264408379793167 -0.09196288883686066 6.0310564041137695 6.52692985534668 7.384240627288818 -1.9891167879104614 -3.3617467880249023 7.431151390075684 0.11059889197349548" Properties=species:S:1:pos:R:3:forces:R:3 energy=-339.5709228515625 stress="-0.008369315415620804 -0.0011936727678403258 -0.0019684801809489727 -0.0011936727678403258 -0.004611074458807707 -0.0009540411410853267 -0.0019684801809489727 -0.0009540411410853267 -0.009557039476931095" pbc="T T T"
Li       3.20186472       3.64769673       2.02301216      -0.00058978      -0.00698383      -0.00350188
Li      -1.68110061       3.71571422       0.05503729       0.00184487      -0.00477327       0.00170544
Li       3.26346350       3.69237375      -0.99464297      -0.00009750      -0.00503349       0.00239511
Li      -1.74385428       3.66982627       3.07199764      -0.00078354      -0.00063781      -0.00386356
Li      -0.06277778      -0.04535457       3.01623201       0.00410015      -0.00252240      -0.00102879
Li       1.58243835       7.40782690      -0.93893719      -0.00034064      -0.00149942       0.00002234
Li      -0.61037976       8.55835819       0.36120036      -0.00417414       0.02282036      -0.00356449
Li       4.23273420       8.49760628       2.36470032       0.03420598       0.01850800       0.02092309
Li       3.64917135       6.16568375       3.79100442       0.00222546      -0.02537662       0.00710679
Li      -1.19405675       6.22740793       1.78893697      -0.03165171      -0.02304778      -0.01837106
Li      -0.59811181       8.58869553       3.61965513      -0.00455812       0.02191295      -0.01739879
Li       4.32764530       8.58423328      -0.48556691      -0.01335293      -0.01314214      -0.03321870
Li       3.63621306       6.13456869       0.53282118       0.00591076      -0.02428283       0.01603933
Li      -1.28853798       6.13979959       4.64004755       0.02886895       0.01410150       0.03570263
Mn       1.51885176       7.36004305       2.07744980      -0.00351421       0.07066154      -0.04810714
Mn       0.00012679      -0.00440518       0.00097639      -0.00179349       0.16149503      -0.02009073
Mn       1.04286802       4.96747065       0.37209982      -0.04001844      -0.06315437      -0.06844488
Mn       2.56618118      12.30856133       2.47237659      -0.02664535       0.06901225       0.02399524
Mn       1.99566209       9.75611496       3.77932072       0.01842743       0.03988326       0.08029311
Mn       0.47212210       2.41568542       1.67804992       0.02783316      -0.11650139      -0.02193098
Mn       1.01183200       4.92625093       3.45264649      -0.04219789      -0.08727356      -0.00251317
Mn       2.64909053      12.35203171      -0.50226682       0.05454639       0.03049126       0.09705162
Mn       2.02722192       9.79475594       0.69840705      -0.02122280       0.17319307       0.03291683
Mn       0.38889575       2.37082410       4.65333652      -0.02367465      -0.09380450      -0.05503104
O       -2.19731617       8.02519131       4.85102606       0.02159190       0.00984358      -0.00528785
O        2.84231615       8.04367733       0.80460864       0.05922457      -0.10477088       0.02249274
O        5.23667049       6.69760561      -0.69792700      -0.03365949      -0.02285615       0.00335472
O        0.19538757       6.68083715       3.34715629      -0.04428203       0.06753571      -0.01298041
O        1.63119972       3.04146123       0.19344722       0.05835565       0.01588685       0.03550838
O        3.28581619      10.50729561       2.50463700       0.10346382      -0.03814904       0.03660340
O        1.40804708      11.68189812       3.95888901      -0.06857963      -0.01215572      -0.04937278
O       -0.24770893       4.21617413       1.64850497      -0.08957254       0.04214819      -0.04786667
O        2.33443618       5.58224773       2.15804601       0.02275672       0.00079654      -0.01204923
O       -2.56092501       5.66974974       0.21606928       0.00798510      -0.06064771       0.03002857
O        0.70326251       9.14194965       1.99366736      -0.00321962      -0.02210110       0.01923612
O       -0.92680049       1.66785729       5.92648077       0.00752634       0.03965859      -0.04710277
O       -2.24018168       8.05121422       1.57570088       0.03582626      -0.04697086       0.01933243
O        2.66526031       7.95273924       3.53463769       0.01827041      -0.04675326       0.04817836
O        5.27918434       6.67176628       2.57714415      -0.03905851       0.03434821      -0.02109147
O        0.37243307       6.77016068       0.61743504      -0.01131843       0.04189922      -0.04190728
O        1.73172295       3.06501579       3.42884350       0.02114007      -0.06371996      -0.00102800
O        3.40506911      10.54123116      -0.50680184       0.01659230      -0.02250416       0.04438297
O        1.30858862      11.66053581       0.72257936      -0.03432574       0.03690246       0.00992724
O       -0.36593479       4.18364573       4.65914631      -0.01744851      -0.00155529      -0.04848913
O        2.36293554       5.51729441      -0.87378705      -0.00664712      -0.00939173      -0.03674708
O        3.75253630      12.83183479       1.00216258       0.06690113       0.00592705       0.05300235
O        0.80164987       9.29805851      -1.00426924       0.01901536       0.01311994       0.01884738
O       -0.71337187       1.89195406       3.14861798      -0.07388596      -0.01053627      -0.03805832
48
Lattice="-0.11093410104513168 -0.08511084318161011 6.054743766784668 6.548672676086426 7.392608642578125 -1.971230387687683 -3.347581624984741 7.417511940002441 0.1109241470694542" Properties=species:S:1:pos:R:3:forces:R:3 energy=-339.5649719238281 stress="-0.0002879210514947772 0.0018430163618177176 0.002979609416797757 0.0018430163618177176 0.0007538083009421825 0.0007954579778015614 0.002979609416797757 0.0007954579778015614 0.002629607915878296" pbc="T T T"
Li       3.22036195       3.65522528       2.04367518      -0.00518863      -0.00219324      -0.00080749
Li      -1.67398512       3.70872545       0.05542477      -0.00070785       0.00427107      -0.00018627
Li       3.27429056       3.69688201      -0.98549920      -0.00323680      -0.00497497      -0.00064700
Li      -1.72910464       3.66656756       3.08362269      -0.00046108       0.00184110      -0.00163458
Li      -0.05494013      -0.04200722       3.02796531      -0.00137519      -0.00528340      -0.00203903
Li       1.60047841       7.40503025      -0.92967743      -0.00123763       0.00015156      -0.00257493
Li      -0.58912939       8.55415249       0.37032667       0.01353957       0.02015433      -0.00330054
Li       4.26830196       8.50791550       2.39896369       0.01512385       0.00230537       0.00450801
Li       3.67891836       6.17148256       3.82422781      -0.01291440      -0.01890405       0.00353761
Li      -1.17825472       6.21867418       1.79656184      -0.01745263      -0.00982814      -0.00517414
Li      -0.56762469       8.58846951       3.64137268       0.02864023       0.03540596      -0.00175526
Li       4.34943295       8.58684444      -0.47015291      -0.02322688      -0.02079233      -0.02414596
Li       3.65725923       6.13656521       0.55285770      -0.03044927      -0.03255332       0.00195048
Li      -1.25744998       6.13928509       4.66691685       0.01579844       0.01442567       0.02163850
Mn       1.54445672       7.36178255       2.09803104      -0.00695739       0.00296098      -0.00076115
Mn       0.00071579      -0.00159904       0.00015445      -0.01508619      -0.03293919       0.01450097
Mn       1.05008996       4.96114302       0.37515277       0.04223709       0.03388319       0.01334420
Mn       2.60955763      12.31092644       2.50558877      -0.06401726       0.04405784       0.02699900
Mn       2.03963256       9.76399422       3.81782269      -0.05196424      -0.03668439       0.01017208
Mn       0.48039433       2.41412950       1.68623543       0.06115022      -0.03516288      -0.00700146
Mn       1.03234494       4.92527962       3.47008801       0.02734155       0.04616676       0.01503604
Mn       2.67949200      12.34750843      -0.47981563       0.11744390       0.08807323       0.07315086
Mn       2.05711365       9.79618931       0.72466344      -0.01261471       0.02089443      -0.05454466
Mn       0.40760157       2.37389112       4.67391300      -0.00813974       0.02782556      -0.09187222
O       -2.16775918       8.02083015       4.87447405       0.03758812      -0.02906113       0.00576076
O        2.87371516       8.03856945       0.82741880       0.01097793      -0.03960489       0.05727887
O        5.25704241       6.70456982      -0.67991048      -0.02874871       0.00897499      -0.01143591
O        0.21517906       6.68694258       3.36715317       0.00105659       0.01426581      -0.05159305
O        1.64580441       3.04653573       0.20565434      -0.01632539      -0.10898771      -0.05749267
O        3.32946110      10.51325512       2.55054712       0.15603229      -0.05987845      -0.07155618
O        1.44527411      11.67966175       3.98806715      -0.00366141       0.09068809       0.05703391
O       -0.23941903       4.21301317       1.64408600      -0.14630097       0.03803543       0.06102026
O        2.35545301       5.58365822       2.17920589      -0.00971108      -0.01680084       0.00853490
O       -2.54808474       5.65935612       0.21636897      -0.02889160      -0.09578580       0.04902058
O        0.73444593       9.14219666       2.01513028       0.00984539       0.00306580       0.00084867
O       -0.90725684       1.67215896       5.94688654      -0.00845559       0.08923020      -0.02541613
O       -2.21254230       8.03961182       1.59170341      -0.07610994      -0.08686189      -0.13454968
O        2.69888878       7.96116686       3.57388663      -0.03642077      -0.14452316      -0.10412274
O        5.30294800       6.68429422       2.60333776       0.07139420       0.10150535       0.12735440
O        0.39031327       6.76397800       0.62081647       0.04297968       0.14468002       0.10312767
O        1.75307488       3.06307602       3.44848323      -0.02952659      -0.05274361      -0.02548253
O        3.43224096      10.53750992      -0.48217264       0.02931745      -0.01033826       0.06742100
O        1.33751631      11.66264629       0.74576104       0.01513580       0.02301639       0.02808224
O       -0.34078428       4.18687916       4.67537498      -0.05477220      -0.00497701      -0.05194305
O        2.36892438       5.51268864      -0.86344594       0.06723507       0.01541305      -0.13818149
O        3.79768896      12.83427334       1.04361665      -0.05016211      -0.05945482      -0.14948022
O        0.83097130       9.29745579      -0.99761927      -0.05196847      -0.00712146       0.13366774
O       -0.70733601       1.89133358       3.15087175       0.03324737       0.04416273       0.13370958
28
Lattice="2.9519410133361816 0.0 -0.19146600365638733 -0.46101000905036926 16.209257125854492 0.18024900555610657 0.0 0.0 4.885313987731934" Properties=species:S:1:pos:R:3:forces:R:3 energy=-194.57301330566406 stress="-0.12455229461193085 -0.06735648214817047 -0.04733951389789581 -0.06735648214817047 -0.17154736816883087 0.037660181522369385 -0.04733951389789581 0.037660181522369385 -0.16116423904895782" pbc="T T T"
Li       2.67522836       2.31560588       1.59271574      -0.00000000       0.00000000       0.00000000
Li       0.92254806       4.63121176       1.02997327      -0.00804604      -0.69083381      -0.19783741
Li       2.12180591       6.94681740       0.27576506      -0.01083424      -0.01217510       0.09554228
Li       0.36912516       9.26243973       4.59833193      -0.00035881      -0.00170937       0.00043219
Li       1.56838298      11.57804489       3.84412360       0.00035881       0.00170937      -0.00043219
Li      -0.18429729      13.89365101       3.28138137       0.01083424       0.01217510      -0.09554228
Li       1.47597051       0.00000000       2.34692407       0.00804604       0.69083381       0.19783741
Li       1.19925785       2.31560588       4.13110590      -0.00000000       0.00000000       0.00000000
Mn       0.00000000       0.00000000       0.00000000       0.28585833       4.40562248      -1.37751210
Mn       2.39851856       4.63121176       3.37689734      -0.28585833      -4.40562248       1.37751210
Mn       0.64583534       6.94681740       2.81415510      -0.12229468      -0.22626285      -0.16032048
Mn       1.84509563       9.26243973       2.05994201      -0.01235823      -0.05071744       0.00605746
Mn       0.09241245      11.57804489       1.49719965       0.01235823       0.05071744      -0.00605746
Mn       1.29167318      13.89365101       0.74299127       0.12229468       0.22626285       0.16032048
O        1.26880622       1.16173363       0.69903511       1.24428666      -1.65933013       0.65326321
O        2.46806645       3.47735572      -0.05517801       0.58077949       1.59002173       0.37554181
O        0.71538335       5.79296160       4.26739359       1.50933981       0.17392755       1.34012723
O        1.91464412       8.10856724       3.51318526       0.79472196       0.33616728       1.92152011
O        0.16196091      10.42417336       2.95044303       0.74616504       0.22392116       1.88011944
O        1.36121869      12.73977947       2.19623470       0.74158114       0.12227165       1.93386126
O       -0.39146155      15.05538464       1.63349235       0.65976828      -0.42773139       1.79267216
O        1.12971234       3.46947789       2.67786217      -1.24428666       1.65933013      -0.65326321
O        2.32897019       5.78508377       1.92365396      -0.65976828       0.42773139      -1.79267216
O        0.57628691       8.10068989       1.36091173      -0.74158114      -0.12227165      -1.93386126
O        1.77554762      10.41629505       0.60670328      -0.74616504      -0.22392116      -1.88011944
O        0.02286445      12.73190117       4.92927504      -0.79472196      -0.33616728      -1.92152011
O        1.22212470      15.04752350       4.17506170      -1.50933981      -0.17392755      -1.34012723
O        2.88239264       1.15387213       3.24060464      -0.58077949      -1.59002173      -0.37554181
24
Lattice="4.862255096435547 -0.15118227899074554 -1.4356199502944946 -0.5691630244255066 5.229213237762451 -0.00032623999868519604 -0.0037475000135600567 -0.0009164899820461869 8.601238250732422" Properties=species:S:1:pos:R:3:forces:R:3 energy=-169.68333435058594 stress="-0.005422011949121952 -0.004724969156086445 0.0004675609525293112 -0.004724969156086445 -0.01137255597859621 -0.00012087693903595209 0.0004675609525293112 -0.00012087693903595209 -0.008203377015888691" pbc="T T T"
Li       2.27629423       1.23469341       7.18623161      -0.00589004      -0.10122379       0.01653261
Li       2.06129050       3.81821918       0.01453748       0.09616616       0.10131409       0.02155525
Li       2.02882004       3.82944822       5.73615074       0.01838147       0.01285047      -0.01251688
Li       2.25927496       1.24736071       4.29621744      -0.01838147      -0.01285047       0.01251688
Li       2.01180100       3.84211540       2.84614515       0.00589004       0.10122379      -0.01653261
Li       2.23055220       1.25950623       1.41659284      -0.09616616      -0.10131409      -0.02155525
Li      -0.28520608       2.61445379       1.43337941       0.00000000       0.00000000      -0.00000000
Mn       0.00168922      -0.00213125       0.00744076      -0.02125573       0.01741404       0.41909173
Mn      -0.00293838       0.00182575       2.85963559       0.02125573      -0.01741404      -0.41909173
Mn      -0.28963053       2.61355591       4.26986694       0.04285230      -0.00806980      -0.04467179
Mn      -0.00249833      -0.00061099       5.73416138       0.00000000       0.00000000      -0.00000000
Mn      -0.28452915       2.61443520       7.19812107      -0.04285230       0.00806980       0.04467179
O        0.62020332       4.63188267       7.19004631      -0.03004923       0.09431953      -0.13323924
O        0.86523098       1.77931452      -0.06151786      -0.00455883       0.02239578       0.02369531
O        0.90574151       2.02140188       5.74001932       0.04822026       0.05489557       0.00501924
O        0.63321787       4.62880421       4.27590132      -0.06150946       0.09283671       0.10543245
O        0.85007101       1.77301288       2.92563057      -0.04581535       0.01441408      -0.02520371
O        0.61295807       4.64527321       1.43229580      -0.17495060       0.11573948       0.01073779
O        3.43802428       3.30379605       7.10674620       0.04581535      -0.01441408       0.02520371
O        3.67888451       0.43245235      -0.00116551       0.17495060      -0.11573948      -0.01073779
O        3.65487742       0.44800460       5.75646687       0.06150946      -0.09283671      -0.10543245
O        3.38235378       3.05540705       4.29234886      -0.04822026      -0.05489557      -0.00501924
O        3.66789198       0.44492611       2.84233022       0.03004923      -0.09431953       0.13323924
O        3.42661166       3.29841089       1.49264812       0.00455883      -0.02239578      -0.02369531
40
Lattice="0.016118749976158142 -4.1805219650268555 -4.2654643058776855 0.015946000814437866 4.167113304138184 -4.252067565917969 12.411229133605957 0.006515540182590485 4.210933208465576" Properties=species:S:1:pos:R:3:forces:R:3 energy=-314.5621643066406 stress="-0.0014193040551617742 -0.0004924684762954712 0.0011837412603199482 -0.0004924684762954712 0.007190219592303038 -0.0004694955132436007 0.0011837412603199482 -0.0004694955132436007 0.007023578509688377" pbc="T T T"
Li       3.08015466      -1.03246176      -5.29837942      -0.03369850      -0.10864377      -0.00494102
Li       5.21717882       1.02555728      -3.25048327       0.05280902       0.04289731      -0.07247365
Li       9.31116486       1.03543246       1.04605019       0.03292863       0.07954362       0.07045287
Li      11.41949654       3.14088297      -1.14541054       0.09447594       0.04448938      -0.00662074
Mn      -0.00717532       2.07089210      -2.09381127       0.22633909      -0.05349636      -0.00194625
Mn      12.39070320      -0.01200193      -0.03596053       0.11499103       0.10962194       0.14487265
Mn       2.05747461       2.06385303      -4.31296396       0.18174633       0.26919833       0.13676836
Mn       2.08793330      -0.02823024      -2.17546225       0.13619249       0.25183991       0.06149336
Mn       4.11652231      -2.09838557      -2.14819837       0.19231831      -0.12332909       0.17151195
Mn       4.10950327       0.01592435      -0.01393094      -0.22189915      -0.07132183       0.11584091
Mn       6.20925188       2.09524846       0.01565297       0.06732447      -0.14620933      -0.03894550
Mn       6.19145775      -4.16078424      -2.13637209      -0.25998467      -0.10509603       0.14235276
Mn       8.34130573       2.11228371      -2.19128299      -1.03162575       0.28571859       0.07575005
Mn       8.35627842       0.01603349      -4.30912828      -0.23125513      -0.12094811      -0.20365627
Mn      10.37532330      -2.07375884      -0.01168390       0.05626088       0.22212940      -0.56222165
Mn      10.36816883       0.02849641      -2.15295506       0.16877306      -0.40475786       0.17298701
O        0.15039527       1.94747293      -4.24397135      -0.18381742      -0.12870908      -0.18521939
O        0.16514482       0.06488675      -2.27555084      -0.22105335       0.31520838      -0.05162859
O        1.94835746       0.11554974      -4.15790415      -0.08304112      -0.14555624       0.07221130
O        1.98825002       1.95533800      -2.30166531       0.01533751      -0.13461275      -0.24633917
O        2.17848730      -1.94529212      -1.99942398      -0.06257258      -0.30305946       0.00041785
O        2.17314363      -0.17140161      -0.21099386      -0.18178470       0.03386780      -0.36566466
O        4.00302744      -0.13903034      -2.19805813      -0.06321948      -0.26971003       0.11841036
O        4.03275633       2.14964867      -4.41995525      -0.12579437       0.41803429      -0.08765332
O        4.06415033      -2.18523002      -4.06166506       0.28025576      -0.50185138       0.10713069
O        4.29310036       0.12268827      -6.32306767      -0.00393933       0.01894640      -0.10541805
O        6.03608704       0.17030255       0.19334754       0.18024826       0.06413796       0.17061344
O        6.04271221      -2.25062370      -2.19345617      -0.01896538       0.26432475      -0.31693864
O        6.35337448       2.21451116      -2.08221507       0.17438015       0.06245546       0.28684878
O        6.40022945      -0.14241213      -4.40150023       0.00901547       0.07443839      -0.02635236
O        8.12915802      -0.08432571       2.20556211       0.20790248       0.04802450       0.11059009
O        8.36123943       2.26460767      -0.21824493       0.00074814      -0.06353487      -0.20609263
O        8.44063663       0.17470475      -2.35017681       0.07697945      -0.03290774      -0.07991460
O        8.39804745      -2.22933245       0.10841880       0.04810337       0.27191433      -0.05036222
O       10.26408195       0.16082823      -4.26187134       0.24265704      -0.05220257       0.19966848
O       10.21875668       2.12915134      -2.34925485       0.38823739      -0.27821195       0.28854859
O       10.46279049      -0.13604978      -0.04126299      -0.02600474       0.15450616      -0.28965998
O       10.48026657      -2.10624170      -1.96330118      -0.05870385       0.43232182       0.14662795
O       12.27275372      -1.90256250      -0.02677362      -0.10480876      -0.07029244       0.26437539
O       12.27131367      -0.09493894      -1.95638394      -0.03585598      -0.34916776       0.04457586
80
Lattice="8.8440523147583 0.0 0.0 0.0 9.467592239379883 0.0 0.0 0.0 9.474309921264648" Properties=species:S:1:pos:R:3:forces:R:3 energy=-472.6077880859375 stress="-2.9938664738438092e-05 0.0 -0.0 0.0 -0.0003441508742980659 -0.0 -0.0 -0.0 -0.0009359765681438148" pbc="T T T"
Li       0.99928057       1.31908166       5.74919128       0.00898756      -0.00653727      -0.01391695
Li       0.99928057       6.05287790       8.46227360       0.00898756      -0.00653727       0.01391695
Li       0.99577832       7.93721247       1.11325037       0.00443523      -0.01030459       0.03582856
Li       0.99577832       3.20341659       3.62390471       0.00443523      -0.01030459      -0.03582856
Li       1.09770608       3.59503412       8.13220787       0.04833563      -0.01987259       0.00297911
Li       1.09770608       8.32882977       6.07925749       0.04833563      -0.01987259      -0.00297911
Li       1.38137019       1.05903542       8.23825359       0.03457958       0.00457674      -0.02798872
Li       1.38137019       5.79283142       5.97321129       0.03457958       0.00457674       0.02798872
Li       1.46853709       3.70215988       1.12060249      -0.01348105      -0.00097442      -0.00679137
Li       1.46853709       8.43595600       3.61655259      -0.01348105      -0.00097442       0.00679137
Li       2.95348883       8.43595600       8.35370731       0.01348105      -0.00097442       0.00679137
Li       2.95348883       3.70215988       5.85775757       0.01348105      -0.00097442      -0.00679137
Li       3.04065585       5.79283142       1.23605633      -0.03457958       0.00457674       0.02798872
Li       3.04065585       1.05903542       3.50109863      -0.03457958       0.00457674      -0.02798872
Li       3.32431984       8.32882977       1.34210229      -0.04833563      -0.01987259      -0.00297911
Li       3.32431984       3.59503412       3.39505267      -0.04833563      -0.01987259       0.00297911
Li       3.42624760       7.93721247       5.85040522      -0.00443523      -0.01030459       0.03582856
Li       3.42624760       3.20341659       8.36105919      -0.00443523      -0.01030459      -0.03582856
Li       3.42274547       1.31908166       1.01203632      -0.00898756      -0.00653727      -0.01391695
Li       3.42274547       6.05287790       3.72511864      -0.00898756      -0.00653727       0.01391695
Li       5.42130661       3.41471434       5.74919128       0.00898756       0.00653727      -0.01391695
Li       5.42130661       8.14850998       8.46227360       0.00898756       0.00653727       0.01391695
Li       5.41780424       6.26417542       1.11325037       0.00443523       0.01030459       0.03582856
Li       5.41780424       1.53037941       3.62390471       0.00443523       0.01030459      -0.03582856
Li       5.51973200       5.87255812       6.07925749       0.04833563       0.01987259      -0.00297911
Li       5.51973200       1.13876200       8.13220787       0.04833563       0.01987259       0.00297911
Li       5.80339622       8.40855694       5.97321129       0.03457958      -0.00457674       0.02798872
Li       5.80339622       3.67476058       8.23825359       0.03457958      -0.00457674      -0.02798872
Li       5.89056301       1.03163612       1.12060249      -0.01348105       0.00097442      -0.00679137
Li       5.89056301       5.76543236       3.61655259      -0.01348105       0.00097442       0.00679137
Li       7.37551498       1.03163612       5.85775757       0.01348105       0.00097442      -0.00679137
Li       7.37551498       5.76543236       8.35370731       0.01348105       0.00097442       0.00679137
Li       7.46268177       3.67476058       3.50109863      -0.03457958      -0.00457674      -0.02798872
Li       7.46268177       8.40855694       1.23605633      -0.03457958      -0.00457674       0.02798872
Li       7.74634600       5.87255812       1.34210229      -0.04833563       0.01987259      -0.00297911
Li       7.74634600       1.13876200       3.39505267      -0.04833563       0.01987259       0.00297911