16
Lattice="3.710859775543213 9.19999990856013e-07 1.999999987845058e-08 1.040000029206567e-06 5.49220085144043 0.005078650079667568 -1.2100000503778574e-06 0.010146420449018478 10.412193298339844" Properties=species:S:1:pos:R:3:forces:R:3 energy=-121.97858428955078 stress="0.0006526649813167751 5.863929004590318e-07 -2.194015280565509e-07 5.863929004590318e-07 -0.0009458507411181927 -0.0009202370420098305 -2.194015280565509e-07 -0.0009202370420098305 0.0031517150346189737" pbc="T T T"
Ca       1.85543561       4.32969809       1.36629891      -0.00001699       0.01605588      -0.02020456
Ca       1.85542512       3.91148305       6.56865263       0.00002536       0.02607673      -0.00328455
Mn      -0.00000644       1.43280363       6.63240623       0.00014364       0.02445418       0.08526900
Mn       0.00000297       3.95014071       3.82579350      -0.00014433      -0.27994385      -0.09898633
Mn       0.00000558       1.32274675       1.42084575      -0.00003418       0.02840492      -0.00882322
Mn       3.71084785       4.30592966       9.03712368       0.00016095       0.11151249      -0.18353632
O        0.00000175       2.99327254       5.45213413      -0.00002240       0.00817486      -0.04708180
O        0.00000126       0.15079571       2.84537721       0.00002873       0.05876284       0.00314181
O        0.00000482       3.08648396       2.16227007       0.00002439      -0.18630318       0.13229768
O        0.00001596       2.60797501       8.05885887      -0.00002241      -0.05936510      -0.00706090
O        1.85544205       1.56020617       1.05504537      -0.00010100      -0.05317798       0.04768656
O        1.85542083       4.01939249       9.25118923       0.00004927       0.04970041       0.00752575
O       -0.00000237       5.16274405       7.37601137      -0.00002943       0.17051119       0.10843126
O        1.85542428       1.19140375       6.27466106       0.00002609       0.08482017       0.03138256
O        0.00000293       5.24321365       0.25104150       0.00002029       0.05238856      -0.05224592
O        1.85543978       4.23516703       4.04361534      -0.00010800      -0.05207209       0.00548897
20
Lattice="5.44541597366333 0.005042990203946829 0.01520616002380848 0.005102380178868771 5.500539302825928 -0.0025869200471788645 0.02167157083749771 -0.003674590028822422 7.730251312255859" Properties=species:S:1:pos:R:3:forces:R:3 energy=-161.61460876464844 stress="0.03514283895492554 0.007294990122318268 0.0025256164371967316 0.007294990122318268 0.028618725016713142 -0.003812917973846197 0.0025256164371967316 -0.003812917973846197 0.023005863651633263" pbc="T T T"
Ca       5.41313124       0.20656475       1.95148778       0.05388725      -0.04685253      -0.08338970
Ca       2.70323706       2.53883386       5.79823112       0.01350982      -0.05004518       0.05937308
Ca       2.76893616       2.96310616       1.94463289      -0.01322614       0.04965997      -0.05954296
Ca       0.05907466       5.29532909       5.79138803      -0.05422802       0.04678740       0.08321791
V        2.72269964       0.00253386       0.00760854       0.00106943      -0.00041467       0.00057773
V        0.00256052       2.75026083      -0.00138117      -0.00076333       0.00139839       0.00198289
V        0.01339919       2.74842262       3.86384249      -0.00051959      -0.00025168      -0.00165909
V        2.73861313       5.50120497       3.87018585       0.00086763       0.00092949       0.00018740
O        5.12725115       2.81019831       5.77101469      -0.17025970       0.11257313       0.25529927
O        2.39431524       5.44247961       1.89870799      -0.32401142      -0.06534673       0.16125175
O        3.07787800       0.05943834       5.84417248       0.32388157       0.06511515      -0.16136521
O        0.34493887       2.69170570       1.97186136       0.17029828      -0.11278386      -0.25536740
O        3.92349052       1.59601510       3.62851667       0.10500601       0.20788030      -0.07502685
O        1.14110076       1.21517515       4.11608267      -0.32753691       0.22703668       0.09847466
O        4.26030684       4.34765482       0.25545016       0.61181098      -0.41466779       0.08443851
O        1.58736157       3.93588924       7.49006081      -0.95496958      -1.05577362      -0.09800706
O        3.88483071       1.56602144       0.25282174       0.95477796       1.05554962       0.09730592
O        1.21187401       1.15425491       7.48743105      -0.61186361       0.41450861      -0.08519761
O        1.54870629       3.90590096       4.11433697      -0.10507936      -0.20823304       0.07551051
O        4.33110571       4.28672838       3.62677932       0.32734874      -0.22706962      -0.09806373
14
Lattice="0.0 4.267350196838379 4.267350196838379 4.267350196838379 0.0 4.267350196838379 4.267350196838379 4.267350196838379 0.0" Properties=species:S:1:pos:R:3:forces:R:3 energy=-115.76020812988281 stress="0.00020257251162547618 -0.0 -0.0 -0.0 0.00020257251162547618 -0.0 -0.0 -0.0 0.00020257251162547618" pbc="T T T"
Mg       5.33418751       5.33418751       5.33418751       0.00000000       0.00000000       0.00000000
Mg       3.20051241       3.20051241       3.20051241       0.00000000       0.00000000       0.00000000
V        2.13367510       2.13367510       0.00000000       0.00000000       0.00000000       0.00000000
V        0.00000000       0.00000000       0.00000000       0.00000000       0.00000000       0.00000000
V        2.13367510       0.00000000       2.13367510       0.00000000       0.00000000       0.00000000
V        0.00000000       2.13367510       2.13367510       0.00000000       0.00000000       0.00000000
O        6.48197651       6.48197651       6.48197651      -0.00090309      -0.00090309      -0.00090309
O        4.34830141       4.34830141       2.05272341      -0.00090309      -0.00090309       0.00090309
O        2.05272341       4.34830141       4.34830141       0.00090309      -0.00090309      -0.00090309
O        4.34830141       2.05272341       4.34830141      -0.00090309       0.00090309      -0.00090309
O        6.48197651       4.18639851       4.18639851      -0.00090309       0.00090309       0.00090309
O        4.18639851       6.48197651       4.18639851       0.00090309      -0.00090309       0.00090309
O        2.05272341       2.05272341       2.05272341       0.00090309       0.00090309       0.00090309
O        4.18639851       4.18639851       6.48197651       0.00090309       0.00090309      -0.00090309
28
Lattice="3.15813946723938 5.4666056632995605 0.001332439947873354 2.9508321285247803 -1.7000242471694946 10.12381362915039 6.3284912109375 -0.007155970204621553 -0.13795654475688934" Properties=species:S:1:pos:R:3:forces:R:3 energy=-226.62344360351562 stress="-0.0030594526324421167 0.001658915774896741 -0.00024211296113207936 0.001658915774896741 -0.0013848628150299191 0.00041395463631488383 -0.00024211296113207936 0.00041395463631488383 -0.0022097774781286716" pbc="T T T"
Ca       6.23581982       0.04957893      -0.04351437      -0.23915687       0.12651326       0.12934142
Ca       9.27058315       1.94421208       5.03264046      -0.02255643       0.01154891       0.01019285
Ca       4.67658377       4.59111547       3.13772535       0.01208950      -0.00488074      -0.00043649
Ca       4.58387661       1.00215006       8.21215820      -0.08206930       0.04489726      -0.03337720
Mn       6.23860121       1.84802902       3.08316684      -0.00443171      -0.01718721      -0.04227044
Mn       9.30240154       3.73829961       8.15110302       0.03127133      -0.08077362       0.03712426
Mn       6.30636644       3.64930201       0.51434201       0.28419009      -0.15424252       0.37648466
Mn       6.20523691       0.06718438       5.60149860       0.13256228      -0.07939200      -0.28207347
Mn       7.83459091       4.61460400       3.08681440      -0.00953769       0.01173277      -0.03778958
Mn       7.72932196       1.01184916       8.14855003       0.10172515       0.01849600       0.04339261
Mn       6.31639194       3.64333892       6.17192650      -0.09158836       0.06394881      -0.07835108
Mn       3.22663713       1.77995849       1.12296486       0.09055112      -0.05068517       0.06197307
O        7.80599070       2.77035570       1.56368327      -0.12541556       0.09634476       0.04408456
O        7.68964100      -0.79504710       6.65029240       0.03479028      -0.01635009      -0.12954591
O        4.81517458       0.87826926       4.54465771      -0.22402474       0.10517307       0.18851943
O        7.84997320       2.76994228       9.65109062       0.12246132      -0.08264191      -0.27809402
O        4.99405956       2.74774480       1.79586148       0.14106239      -0.01979242      -0.06999195
O        4.91375542      -0.82129765       6.84748363       0.03499446      -0.07025408       0.04850537
O        6.48444414       3.55059433       4.07816601       0.01647388      -0.02704129       0.06286740
O        6.38013268      -0.03634024       9.17047787       0.03775221      -0.01592100      -0.09178004
O        3.28285217      -0.23541687       1.79486871       0.03956365      -0.08467653      -0.07032107
O        6.33523035       1.62255740       6.84683180       0.04702758       0.03684125       0.06524572
O        9.22770119       4.05208731       4.34741879       0.06890009      -0.11722801       0.06326433
O        9.13955879       0.44884944       9.40747356      -0.11889744       0.13798334      -0.06836226
O        6.03272104       0.16260387       2.12196851      -0.08548023       0.06879747       0.12921622
O        9.07876682       2.05249763       7.21311808      -0.03490612       0.01631074      -0.08519345
O        7.43074894       0.91862875       4.34454632       0.06273844       0.02930003       0.06505722
O       10.50676441       2.79671240       9.40908909      -0.22008933       0.05317890      -0.05768219
14
Lattice="3.9990146160125732 -3.999016761779785 8.738000178709626e-05 3.998687744140625 3.998690128326416 -6.999999868639861e-07 1.9995797872543335 -1.999582052230835 6.685297966003418" Properties=species:S:1:pos:R:3:forces:R:3 energy=-101.55255126953125 stress="-0.001321697374805808 4.79301561426837e-05 -1.2302667528274469e-05 4.79301561426837e-05 -0.0013206768780946732 1.2327311196713708e-05 -1.2302667528274469e-05 1.2327311196713708e-05 -0.007945443503558636" pbc="T T T"
Ba       3.99902534      -3.99902582       4.76207209      -0.00044581       0.00065451       0.01951360
Ba       3.99885964      -0.00017846       4.76201010      -0.00044046       0.00072983       0.01973050
Ba       1.99957407      -1.99957252       1.92330635       0.00052000      -0.00029878      -0.01903909
Ba       5.99842310      -1.99974346       1.92336679       0.00050716      -0.00019304      -0.01920724
Mn       3.99880910      -0.00014762       0.00010317       0.00010666      -0.00153187      -0.00408000
Mn       9.99725342      -1.99990690       6.68537807      -0.00074356      -0.00082218       0.00115399
O        3.99894118      -1.99958301       0.00006035       0.00002098       0.00008320       0.00020746
O        3.99877357       1.99926376       0.00001764       0.00008470       0.00013574       0.00018565
O        1.99945259      -0.00008104       0.00001906       0.00010454       0.00014853       0.00018323
O        7.99787617      -1.99983156       6.68535757       0.00015047       0.00021177       0.00019671
O        3.99902296      -3.99902844       1.96471858      -0.00012877       0.00039934      -0.03818974
O        3.99886227      -0.00017181       1.96470284      -0.00022115       0.00044395      -0.03809335
O        1.99956918      -1.99957621       4.72065926       0.00026447      -0.00000360       0.03855874
O        5.99842739      -1.99973989       4.72066689       0.00022077       0.00004260       0.03887951
13
Lattice="2.976785182952881 -0.001187019981443882 0.6103646755218506 1.4268804788589478 6.804925918579102 0.5916337966918945 0.09487506002187729 0.21939553320407867 7.096656799316406" Properties=species:S:1:pos:R:3:forces:R:3 energy=-96.41267395019531 stress="-0.0048959217965602875 0.0002812625025399029 -0.0007925437530502677 0.0002812625025399029 -0.008297400549054146 -0.0021818564273416996 -0.0007925437530502677 -0.0021818564273416996 -0.0014127218164503574" pbc="T T T"
Ca       1.34560513       0.44581378       0.99907321      -0.03510354      -0.12274191       0.16273788
Fe       2.18705392       1.32411516       4.46835899       0.02465381      -0.39507139      -0.41852197
Fe       1.15467381       3.44587231       1.92477262      -0.02770720       0.29330659       0.09739479
Fe       3.25881529       3.52728343       6.79948044      -0.03813074       0.11540385       0.02376172
Fe       2.20676732       5.58363676       4.34051323       0.14027210       0.24735226      -0.44889238
O        3.54480386       4.69957590       5.39687920      -0.08603043      -0.30362818       0.24746388
O        1.89108741       2.47171736       5.90468884       0.02026947       0.04850416      -0.01642195
O        2.54776621       4.56776619       2.69321513       0.01250088       0.28713000      -0.02289726
O        0.87079781       2.11848569       3.31182361       0.02568387       0.12057498       0.01961329
O        0.53031939       0.37465137       4.96556473      -0.03889182       0.05072410       0.25139681
O        2.84279275       2.21638703       1.26287735      -0.02239252      -0.12050886       0.10674478
O        3.89187288       6.77108145       3.68921423      -0.03565430       0.10703154       0.19621173
O        1.61119270       4.52397346       7.25905466       0.06053041      -0.32807714      -0.19859134
56
Lattice="6.32097864151001 -0.048970021307468414 -0.07244569808244705 3.1180801391601562 5.400687217712402 -3.0700000479555456e-06 12.345731735229492 7.273992538452148 20.274368286132812" Properties=species:S:1:pos:R:3:forces:R:3 energy=-417.2754211425781 stress="0.01095899473875761 -0.008716229349374771 -0.0006862611044198275 -0.008716229349374771 0.003077560570091009 0.0010376842692494392 -0.0006862611044198275 0.0010376842692494392 0.01376637164503336" pbc="T T T"
Ca       1.67199457       0.83490700       0.55012560      -0.15581709       0.09894140      -0.10579405
Ca       3.11546898       3.60196090       2.55699897      -0.83011270       0.47168970       0.28492472
Ca       4.68875599       2.69362235       5.77166605       0.00314035      -0.01905348      -0.02422932
Ca       6.20547247       5.41840124       7.62408781      -0.44667435       0.26298690       0.50164723
Ca       9.27321148       7.24767733      12.66686630      -0.04972601       0.02818976      -0.04899173
Ca      10.85808182       6.33267975      10.04661083       0.06173520      -0.03892009      -0.17106280
Ca      18.65179825       9.03385448      17.65740776      -0.35426536       0.20528664       0.06360873
Ca      13.97914696       8.13117027      15.18285847      -0.15815458       0.09192108      -0.27989537
Fe       6.19056511       3.50437450       2.50408745       1.12971127       0.35594022       0.17001066
Fe       7.77968884       4.50953388       5.13990593       0.09071418      -0.01206525      -2.29612660
Fe       4.73757172       0.98762155       2.50410604       0.31658730      -1.16078103       0.20410651
Fe       7.84050179       4.47438431      10.84849644      -0.80744481       0.46771082      -0.74262697
Fe       9.27031803       5.36477327       7.51111984       0.61418897       0.14740628       0.77921015
Fe      10.86451054       6.32894373       4.42465925       0.37357771      -0.23099244       0.27296087
Fe      10.93757534       6.28674698      15.87181091      -0.67792279       0.39191809      -0.81169116
Fe       7.78433132       2.79101920       7.51113367       0.18171164      -0.75100309       0.95904875
Fe      12.42472267       7.21414471      12.60587025       0.07607870       0.08324646       0.03317400
Fe      13.92009258       8.16522694       9.34718227       0.62939680      -0.34303236       0.81744486
Fe      10.87802887       4.53517675      12.60587788      -0.03476433      -0.10286374       0.03173522
Fe      13.94671154       6.34506369      17.69197845       0.13590188      -0.91812879      -0.04629330
Fe      15.50975227       9.05229187      17.69196510       0.86269671       0.34168899      -0.04763338
Fe      17.01995850       9.97602081      14.40164757       0.82655466      -0.47698924       0.47207251
Fe       4.73196793       2.66867971       0.11858192       0.21406928      -0.14021313      -1.01637816
Fe      20.08542442      11.80662632      19.63415527       0.30324167      -0.17529947      -0.18382142
O        3.49097371       1.78666723       1.30352902       0.47821975      -0.04865276      -0.12973553
O        4.85608387       2.59702229       3.54785919       0.26743424      -0.18922229      -0.00281947
O        4.87533855       4.18444252       1.30351579       0.34268469      -0.38816452      -0.09790310
O        6.11996698       1.86731362       1.32327628      -0.53069973       0.31757537       0.15797395
O        6.32130480       5.35148525       3.80665541      -0.03699654      -0.00430408      -0.27253196
O        6.57428265       3.64712811       6.33813763      -0.79733562      -0.55953807       0.16689321
O        7.73193407       2.73351812       3.79826093      -0.43850306       0.67293674      -0.32603225
O        7.86676455       4.45923376       8.86702061      -0.12792733       0.00261191       0.98428077
O        7.92384434       5.98465538       6.33812904       0.12346814       0.92888528       0.20044579
O        7.73757124       4.53383303       1.26844299      -0.32725191       0.21255007       0.52987581
O        9.11785889       3.73692822       6.37741709       0.80154610      -0.25271592       0.05417781
O        9.29384708       5.43885040       3.79824090      -0.78640187       0.03414879      -0.30289975
O        9.39663410       5.31018448      11.46479702       0.48207912       0.08634305       0.24265474
O        9.25606728       7.25755692       8.64164162      -0.17976858      -0.00685736      -0.39352760
O       10.74633980       4.48157549       8.65559959      -0.34998667       0.65096599      -0.53372997
O       10.98290062       6.26061153      13.80812836       0.12574516      -0.07765141       0.54966438
O       11.01285553       8.10955048      11.46481037       0.16354106      -0.45294216       0.23532443
O       10.81813908       6.35572815       6.34295464       0.18297622      -0.01888466      -0.73523957
O       12.44186115       5.41828012      11.44695663       0.59286201      -0.33950564      -0.29858479
O       12.40528965       7.35500097       8.65561771      -0.75415027      -0.04057570      -0.52872473
O       12.39133835       9.04789639      13.80447292      -0.59421718       0.34175596       0.26703238
O       12.45224476       7.10340929      16.55515671       0.46261159       0.38170776       0.20692647
O       13.84682846       6.32738590      13.78137112      -0.17682795       0.43220127      -0.20745856
O       14.11750507       8.05128288      18.57001305      -0.20608222       0.11938652       0.82223731
O       14.10575867       9.96739960      16.55514526      -0.09827296      -0.59152895       0.20769034
O       13.89226818       8.18136692      11.40173912      -0.16364747       0.10228448      -0.40722311
O       15.62988949       7.17810249      16.50872993       0.00424241      -0.00183157       0.11065365
O       15.47513008       9.14769459      13.78135490      -0.46652731      -0.06289512      -0.20943278
O       15.57921410      10.80779839      19.03556442       0.20269564      -0.11533648       0.34577966
O       16.96403694       8.24914837      19.04128456       0.00083333       0.45307389       0.38282171
O       16.96690750      10.00665951      16.49272156      -0.10526637       0.06154593      -0.21832615
O       18.48747444      10.88785172      19.04128838      -0.39550057      -0.22495052       0.38433707
16
Lattice="3.208470582962036 0.00016833000699989498 -5.1500001063686796e-06 -0.0005316099850460887 5.727419376373291 0.00013929999840911478 2.567999945313204e-05 -0.0004162300028838217 11.394103050231934" Properties=species:S:1:pos:R:3:forces:R:3 energy=-124.01885223388672 stress="-0.001846032333560288 2.520258988170099e-07 -2.179971829718852e-07 2.520258988170099e-07 -0.003830287139862776 2.464896624587709e-07 -2.179971829718852e-07 2.464896624587709e-07 -0.002821684582158923" pbc="T T T"
Ca       0.80190748       2.83461595       1.55197608       0.00010241      -0.02227886      -0.07907372
Ca       2.40608788       2.89566660       9.84413338      -0.00000169       0.02298401       0.08099126
Ca       2.40591168       5.69495296       4.14598989       0.00003820      -0.02286586       0.08062001
Ca       0.80214936       0.02840211       7.24771738      -0.00000744       0.02260189      -0.07959840
Mn       0.80159670       5.66983080       1.27006221       0.00022060       0.00193252       0.00069808
Mn       2.40637398       0.06129399      10.12390041      -0.00009225      -0.00155986      -0.00037253
Mn       2.40621090       2.80182314       4.42900658       0.00001562       0.00189978      -0.00025086
Mn       0.80192089       2.92056370       6.96905565      -0.00013084      -0.00172986       0.00185641
O        2.40603685       4.42133522       2.22372484      -0.00004224       0.05139178      -0.01682205
O        0.80195373       1.30908227       9.16759586       0.00015086      -0.05212027       0.01593504
O        0.80212098       1.55475736       3.47176266      -0.00015960       0.05189052       0.01553781
O        2.40598178       4.16999722       7.92184353      -0.00003783      -0.05105288      -0.01674615
O        2.40629387       1.34244919       0.55662900      -0.00034049      -0.00409865      -0.07367612
O        0.80170935       4.38951492      10.83628941       0.00029416       0.00223064       0.07152332
O        2.40623164       1.52148724       6.25426006       0.00035611       0.00396925      -0.07252508
O        0.80185890       4.20155334       5.13996935      -0.00036559      -0.00319413       0.07190295
28
Lattice="3.0895955562591553 5.351479530334473 -0.018560849130153656 3.1433231830596924 1.735316514968872 5.09256649017334 9.709121704101562 -5.601877689361572 -0.025215009227395058" Properties=species:S:1:pos:R:3:forces:R:3 energy=-226.49412536621094 stress="-0.0007022771169431508 -8.991844515549019e-05 0.00011209379590582103 -8.991844515549019e-05 -0.0011368899140506983 -0.00032904851832427084 0.00011209379590582103 -0.00032904851832427084 -0.001060996437445283" pbc="T T T"
Ca       6.30345201       0.01115135       0.00440877      -0.00380753       0.00219488      -0.00384971
Ca      12.63395405      -0.22086009      -0.02568072       0.00496092      -0.00869854       0.01204764
Ca       4.67487240       4.35948849       3.17591691      -0.00508901       0.00040660      -0.00430432
Ca       8.04438400      -1.02019441       3.17393804      -0.00306774       0.00329284      -0.01261356
Mn      12.71186447       1.52126741       3.15462399      -0.05054143       0.03311762      -0.05799641
Mn       9.58515167      -2.00550485       0.59246129      -0.02862401       0.00057848       0.08687659
Mn       7.89890623       4.39656878       3.16928053       0.06905594       0.02604382       0.02416484
Mn       3.31156087       1.66939425       1.24502802      -0.00314256       0.04462587       0.06180027
Mn       9.69574833       1.51421881       1.21759152       0.04576310      -0.05682600       0.04661504
Mn       6.37678671       1.68220580       3.17309284       0.01306239      -0.07072303       0.01241450
Mn       6.31543255       3.53167295       0.59995621       0.02651524       0.01874676      -0.07839797
Mn      11.21252537      -1.15229034       3.15389061      -0.05599410      -0.00169643      -0.04004304
O        7.87681389       2.32564902       2.00398731       0.00796948       0.00747117      -0.00654107
O       11.40367889      -2.78145909       1.99772239      -0.00096227      -0.00927854       0.00134457
O        4.93617344       1.03480554       4.29180908      -0.00429703       0.01475496      -0.00334085
O       11.05325603       0.41709676       4.26307440      -0.00391439       0.00125525       0.01053216
O        5.12522793       2.54434824       1.86168182       0.01452623       0.00037455      -0.00518259
O        8.38792801      -2.92238879       1.88702023      -0.01881985      -0.01060585      -0.00358216
O        6.51515770       3.40677524       4.20792437       0.00636438       0.00833924      -0.00525287
O        9.79314232      -2.13187623       4.20386267      -0.01202927       0.00193953       0.00985958
O        3.39823794      -0.32177672       1.90990925       0.00545350      -0.00239515      -0.00197043
O        9.83509254      -0.49520099       1.85259795      -0.00206548       0.01092106      -0.00165162
O        9.29504967       3.81824350       4.41141558       0.00610226      -0.01836621      -0.00828655
O       12.55730057      -1.74954009       4.41731167      -0.01069384      -0.00135491      -0.00523903
O        6.21929169      -0.00663126       2.21151114       0.01115745       0.00143157      -0.02314563
O       12.59041595      -0.18199150       2.18283367      -0.00570049      -0.00548805       0.00299916
O        7.56435633       0.81768399       4.44172716       0.01303391       0.01150697      -0.00404734
O       13.89808464       0.60686445       4.40497589      -0.01521578      -0.00156848      -0.00320921
36
Lattice="-2.965818405151367 -5.136948108673096 -0.0 -2.965818405151367 5.136948108673096 0.0 0.0 0.0 -13.592011451721191" Properties=species:S:1:pos:R:3:forces:R:3 energy=-315.575439453125 stress="0.0008614837424829602 0.0 0.0 0.0 0.0008614836260676384 0.0 0.0 0.0 0.00034428294748067856" pbc="T T T"
Ba      -2.96581841       1.71231937      -3.40483212      -0.00000000      -0.00000000      -0.09871510
Ba      -2.96581841      -1.71231937     -10.20083809      -0.00000000      -0.00000000      -0.09871510
V       -1.48268151      -2.56860542      -6.82808590       0.11784240      -0.06803634       0.04952247
V       -2.96581841       0.00026291      -6.82808590      -0.00000000       0.13607267       0.04952247
V       -1.48313689       2.56834245      -6.82808590      -0.11784240      -0.06803634       0.04952247
V       -1.48313689      -2.56834245      -0.03208027      -0.11784240       0.06803634       0.04952247
V       -2.96581841      -0.00026291      -0.03208027      -0.00000000      -0.13607267       0.04952247
V       -1.48268151       2.56860542      -0.03208027       0.11784240       0.06803634       0.04952247
V       -2.96581841       1.71231937     -10.27317905      -0.00000000      -0.00000000       0.14656708
V       -2.96581841      -1.71231937      -3.47717404      -0.00000000      -0.00000000       0.14656708
V        0.00000000       0.00000000      -4.83991766      -0.00000000      -0.00000000      -0.20754483
V        0.00000000       0.00000000     -11.63592339      -0.00000000      -0.00000000      -0.20754483
V        0.00000000       0.00000000      -2.01864886      -0.00000000      -0.00000000       0.07607984
V        0.00000000       0.00000000      -8.81465435      -0.00000000      -0.00000000       0.07607984
O       -1.55033183       0.89508444      -5.77696896      -0.00584864       0.00337671      -0.04541070
O       -2.96581841       3.34677911      -5.77696896      -0.00000000      -0.00675342      -0.04541070
O       -4.38130522       0.89508444      -5.77696896       0.00584864       0.00337671      -0.04541070
O       -4.38130522      -0.89508444     -12.57297421       0.00584864      -0.00337671      -0.04541070
O       -2.96581841      -3.34677911     -12.57297421      -0.00000000       0.00675342      -0.04541070
O       -1.55033183      -0.89508444     -12.57297421      -0.00584864      -0.00337671      -0.04541070
O       -1.55373704       0.89705044      -1.08414555       0.04289149      -0.02476341      -0.01412381
O       -2.96581841       3.34284711      -1.08414555      -0.00000000       0.04952682      -0.01412381
O       -4.37790012       0.89705044      -1.08414555      -0.04289149      -0.02476341      -0.01412381
O       -4.37790012      -0.89705044      -7.88015127      -0.04289149       0.02476341      -0.01412381
O       -2.96581841      -3.34284711      -7.88015127      -0.00000000      -0.04952682      -0.01412381
O       -1.55373704      -0.89705044      -7.88015127       0.04289149       0.02476341      -0.01412381
O       -1.32002616       0.76211733     -10.23573494       0.03227816      -0.01863581       0.05913569
O       -2.96581841       3.61271310     -10.23573494      -0.00000000       0.03727161       0.05913569
O       -4.61161089       0.76211733     -10.23573494      -0.03227816      -0.01863581       0.05913569
O       -4.61161089      -0.76211733      -3.43972898      -0.03227816       0.01863581       0.05913569
O       -2.96581841      -3.61271310      -3.43972898      -0.00000000      -0.03727161       0.05913569
O       -1.32002616      -0.76211733      -3.43972898       0.03227816       0.01863581       0.05913569
O       -2.96581841       1.71231937     -12.48278713      -0.00000000      -0.00000000      -0.00698453
O       -2.96581841      -1.71231937      -5.68678188      -0.00000000      -0.00000000      -0.00698453
O       -2.96581841       1.71231937      -7.96216393      -0.00000000      -0.00000000      -0.05677339
O       -2.96581841      -1.71231937      -1.16615844      -0.00000000      -0.00000000      -0.05677339
22